 DBCSR| CPU Multiplication driver                                           BLAS (U)
 DBCSR| Multrec recursion limit                                              512 (U)
 DBCSR| Multiplication stack size                                           1000 (D)
 DBCSR| Maximum elements for images                                    UNLIMITED (U)
 DBCSR| Multiplicative factor virtual images                                   1 (U)
 DBCSR| Use multiplication densification                                       T (D)
 DBCSR| Multiplication size stacks                                             3 (U)
 DBCSR| Use memory pool for CPU allocation                                     F (U)
 DBCSR| Number of 3D layers                                               SINGLE (U)
 DBCSR| Use MPI memory allocation                                              F (U)
 DBCSR| Use RMA algorithm                                                      F (U)
 DBCSR| Use Communication thread                                               T (U)
 DBCSR| Communication thread load                                             75 (D)
 DBCSR| MPI: My process id                                                     0
 DBCSR| MPI: Number of processes                                              24
 DBCSR| OMP: Current number of threads                                         4
 DBCSR| OMP: Max number of threads                                             4
 DBCSR| Split modifier for TAS multiplication algorithm                  1.0E+00 (U)


  **** **** ******  **  PROGRAM STARTED AT               2025-03-03 01:21:09.905
 ***** ** ***  *** **   PROGRAM STARTED ON                          i01r05c02s04
 **    ****   ******    PROGRAM STARTED BY                               di38fab
 ***** **    ** ** **   PROGRAM PROCESS ID                               4068369
  **** **  *******  **  PROGRAM STARTED IN /hppfs/scratch/04/di38fab/05_MOL/W4-1
                                           1+ALK/b2/DZVP

 CP2K| version string:                 CP2K version 2025.1 (Development Version)
 CP2K| source code revision number:                                  git:47877ba
 CP2K| cp2kflags: omp libint fftw3 libxc parallel scalapack max_contr=4         
 CP2K| is freely available from                            https://www.cp2k.org/
 CP2K| Program compiled at                          Thu Feb 20 16:00:34 CET 2025
 CP2K| Program compiled on                                               login04
 CP2K| Program compiled for                                        Supermuc-foss
 CP2K| Data directory path          /hppfs/work/pn36zo/di38fab/newcp2k/cp2k/data
 CP2K| Input file name                                                    GW.inp

 GLOBAL| Force Environment number                                              1
 GLOBAL| Basis set file name            /hppfs/scratch/04/di38fab/04_TMD/BASIS_A
 GLOBAL| Potential file name            /hppfs/work/pn36zo/di38fab/cp2k/data/ALL
 GLOBAL| MM Potential file name                                     MM_POTENTIAL
 GLOBAL| Coordinate file name                                      __STD_INPUT__
 GLOBAL| Method name                                                        CP2K
 GLOBAL| Project name                                                       MoS2
 GLOBAL| Run type                                                         ENERGY
 GLOBAL| FFT library                                                       FFTW3
 GLOBAL| Diagonalization library                                       ScaLAPACK
 GLOBAL| DGEMM library                                                      BLAS
 GLOBAL| Orthonormality check for eigenvectors                          DISABLED
 GLOBAL| Matrix multiplication library                                 ScaLAPACK
 GLOBAL| All-to-all communication in single precision                          F
 GLOBAL| FFTs using library dependent lengths                                  F
 GLOBAL| Grid backend                                                       AUTO
 GLOBAL| Global print level                                               MEDIUM
 GLOBAL| MPI I/O enabled                                                       T
 GLOBAL| Total number of message passing processes                            24
 GLOBAL| Number of threads for this process                                    4
 GLOBAL| This output is from process                                           0
 GLOBAL| OpenMP stack size per thread (OMP_STACKSIZE)                    default
 GLOBAL| CPU model name             Intel(R) Xeon(R) Platinum 8174 CPU @ 3.10GHz

 MEMORY| system memory details [Kb]
 MEMORY|                        rank 0           min           max       average
 MEMORY| MemTotal             98436664      98436660      98436664      98436662
 MEMORY| MemFree              84003624      84003624      84015628      84009626
 MEMORY| Buffers                     0             0             0             0
 MEMORY| Cached                2404352       2386348       2404352       2395350
 MEMORY| Slab                  1196116       1190384       1196116       1193250
 MEMORY| SReclaimable           265160        259400        265160        262280
 MEMORY| MemLikelyFree        86673136      86661376      86673136      86667256


 *** Fundamental physical constants (SI units) ***

 *** Literature: B. J. Mohr and B. N. Taylor,
 ***             CODATA recommended values of the fundamental physical
 ***             constants: 2006, Web Version 5.1
 ***             http://physics.nist.gov/constants

 Speed of light in vacuum [m/s]                             2.99792458000000E+08
 Magnetic constant or permeability of vacuum [N/A**2]       1.25663706143592E-06
 Electric constant or permittivity of vacuum [F/m]          8.85418781762039E-12
 Planck constant (h) [J*s]                                  6.62606896000000E-34
 Planck constant (h-bar) [J*s]                              1.05457162825177E-34
 Elementary charge [C]                                      1.60217648700000E-19
 Electron mass [kg]                                         9.10938215000000E-31
 Electron g factor [ ]                                     -2.00231930436220E+00
 Proton mass [kg]                                           1.67262163700000E-27
 Fine-structure constant                                    7.29735253760000E-03
 Rydberg constant [1/m]                                     1.09737315685270E+07
 Avogadro constant [1/mol]                                  6.02214179000000E+23
 Boltzmann constant [J/K]                                   1.38065040000000E-23
 Atomic mass unit [kg]                                      1.66053878200000E-27
 Bohr radius [m]                                            5.29177208590000E-11

 *** Conversion factors ***

 [u] -> [a.u.]                                              1.82288848426455E+03
 [Angstrom] -> [Bohr] = [a.u.]                              1.88972613288564E+00
 [a.u.] = [Bohr] -> [Angstrom]                              5.29177208590000E-01
 [a.u.] -> [s]                                              2.41888432650478E-17
 [a.u.] -> [fs]                                             2.41888432650478E-02
 [a.u.] -> [J]                                              4.35974393937059E-18
 [a.u.] -> [N]                                              8.23872205491840E-08
 [a.u.] -> [K]                                              3.15774647902944E+05
 [a.u.] -> [kJ/mol]                                         2.62549961709828E+03
 [a.u.] -> [kcal/mol]                                       6.27509468713739E+02
 [a.u.] -> [Pa]                                             2.94210107994716E+13
 [a.u.] -> [bar]                                            2.94210107994716E+08
 [a.u.] -> [atm]                                            2.90362800883016E+08
 [a.u.] -> [eV]                                             2.72113838565563E+01
 [a.u.] -> [Hz]                                             6.57968392072181E+15
 [a.u.] -> [1/cm] (wave numbers)                            2.19474631370540E+05
 [a.u./Bohr**2] -> [1/cm]                                   5.14048714338585E+03
 

 CELL_TOP| Volume [angstrom^3]:                                     27000.000000
 CELL_TOP| Vector a [angstrom    30.000     0.000     0.000   |a| =    30.000000
 CELL_TOP| Vector b [angstrom     0.000    30.000     0.000   |b| =    30.000000
 CELL_TOP| Vector c [angstrom     0.000     0.000    30.000   |c| =    30.000000
 CELL_TOP| Angle (b,c), alpha [degree]:                                90.000000
 CELL_TOP| Angle (a,c), beta  [degree]:                                90.000000
 CELL_TOP| Angle (a,b), gamma [degree]:                                90.000000
 CELL_TOP| Numerically orthorhombic:                                         YES
 CELL_TOP| Periodicity                                                      NONE

 GENERATE|  Preliminary Number of Bonds generated:                             0
 GENERATE|  Achieved consistency in connectivity generation.

 CELL| Volume [angstrom^3]:                                         27000.000000
 CELL| Vector a [angstrom]:      30.000     0.000     0.000   |a| =    30.000000
 CELL| Vector b [angstrom]:       0.000    30.000     0.000   |b| =    30.000000
 CELL| Vector c [angstrom]:       0.000     0.000    30.000   |c| =    30.000000
 CELL| Angle (b,c), alpha [degree]:                                    90.000000
 CELL| Angle (a,c), beta  [degree]:                                    90.000000
 CELL| Angle (a,b), gamma [degree]:                                    90.000000
 CELL| Numerically orthorhombic:                                             YES
 CELL| Periodicity                                                          NONE

 CELL_REF| Volume [angstrom^3]:                                     27000.000000
 CELL_REF| Vector a [angstrom    30.000     0.000     0.000   |a| =    30.000000
 CELL_REF| Vector b [angstrom     0.000    30.000     0.000   |b| =    30.000000
 CELL_REF| Vector c [angstrom     0.000     0.000    30.000   |c| =    30.000000
 CELL_REF| Angle (b,c), alpha [degree]:                                90.000000
 CELL_REF| Angle (a,c), beta  [degree]:                                90.000000
 CELL_REF| Angle (a,b), gamma [degree]:                                90.000000
 CELL_REF| Numerically orthorhombic:                                         YES
 CELL_REF| Periodicity                                                      NONE

 *******************************************************************************
 *******************************************************************************
 **                                                                           **
 **     #####                         ##              ##                      **
 **    ##   ##            ##          ##              ##                      **
 **   ##     ##                       ##            ######                    **
 **   ##     ##  ##   ##  ##   #####  ##  ##   ####   ##    #####    #####    **
 **   ##     ##  ##   ##  ##  ##      ## ##   ##      ##   ##   ##  ##   ##   **
 **   ##  ## ##  ##   ##  ##  ##      ####     ###    ##   ######   ######    **
 **    ##  ###   ##   ##  ##  ##      ## ##      ##   ##   ##       ##        **
 **     #######   #####   ##   #####  ##  ##  ####    ##    #####   ##        **
 **           ##                                                    ##        **
 **                                                                           **
 **                                                ... make the atoms dance   **
 **                                                                           **
 **            Copyright (C) by CP2K developers group (2000-2025)             **
 **                      J. Chem. Phys. 152, 194103 (2020)                    **
 **                                                                           **
 *******************************************************************************

 DFT| Spin restricted Kohn-Sham (RKS) calculation                            RKS
 DFT| Multiplicity                                                             1
 DFT| Number of spin states                                                    1
 DFT| Charge                                                                   0
 DFT| Self-interaction correction (SIC)                                       NO
 DFT| Cutoffs: density                                              1.000000E-10
 DFT|          gradient                                             1.000000E-10
 DFT|          tau                                                  1.000000E-10
 DFT|          cutoff_smoothing_range                               0.000000E+00
 DFT| XC density smoothing                                                  NONE
 DFT| XC derivatives                                                          PW

 FUNCTIONAL| PBE:
 FUNCTIONAL| J.P.Perdew, K.Burke, M.Ernzerhof, Phys. Rev. Letter, vol. 77, n 18,
 FUNCTIONAL|  pp. 3865-3868, (1996)sx=0.750sc=1.000{spin unpolarized}           


 QS| Method:                                                                GAPW
 QS| Density plane wave grid type                        NON-SPHERICAL FULLSPACE
 QS| Number of grid levels:                                                    4
 QS| Density cutoff [a.u.]:                                                250.0
 QS| Multi grid cutoff [a.u.]: 1) grid level                               250.0
 QS|                           2) grid level                                83.3
 QS|                           3) grid level                                27.8
 QS|                           4) grid level                                 9.3
 QS| Grid level progression factor:                                          3.0
 QS| Relative density cutoff [a.u.]:                                        50.0
 QS| Interaction thresholds: eps_pgf_orb:                                1.0E-12
 QS|                         eps_filter_matrix:                          0.0E+00
 QS|                         eps_core_charge:                            1.0E-14
 QS|                         eps_rho_gspace:                             1.0E-12
 QS|                         eps_rho_rspace:                             1.0E-12
 QS|                         eps_gvg_rspace:                             1.0E-06
 QS|                         eps_ppl:                                    1.0E-02
 QS|                         eps_ppnl:                                   1.0E-08
 QS| GAPW|      One center basis from orbital basis primitives
 QS| GAPW|                   eps_fit:                                    1.0E-04
 QS| GAPW|                   eps_iso:                                    1.0E-12
 QS| GAPW|                   eps_svd:                                    1.0E-08
 QS| GAPW|                   eps_cpc:                                    1.0E-12
 QS| GAPW|   atom-r-grid: quadrature:                                     GC_LOG
 QS| GAPW|      atom-s-grid:  max l :                                          6
 QS| GAPW|      max_l_rho0 :                                                   2


 ATOMIC KIND INFORMATION

  1. Atomic kind: B                                     Number of atoms:       2

     Orbital Basis Set                                        aug-DZVP-MOLOPT-ae

       Number of orbital shell sets:                                           2
       Number of orbital shells:                                              10
       Number of primitive Cartesian functions:                               12
       Number of Cartesian basis functions:                                   35
       Number of spherical basis functions:                                   30
       Norm type:                                                              2

       Normalised Cartesian orbitals:

                        Set   Shell   Orbital            Exponent    Coefficient

                          1       1    2s                0.082134       0.085473
                                                         0.140000       0.049675
                                                         0.279625      -0.030750
                                                         0.881274       0.022030
                                                         4.510873       0.000000

                          1       2    3px               0.082134      -0.004879
                                                         0.140000       0.000000
                                                         0.279625      -0.151722
                                                         0.881274      -0.583957
                                                         4.510873      -1.036243
                          1       2    3py               0.082134      -0.004879
                                                         0.140000       0.000000
                                                         0.279625      -0.151722
                                                         0.881274      -0.583957
                                                         4.510873      -1.036243
                          1       2    3pz               0.082134      -0.004879
                                                         0.140000       0.000000
                                                         0.279625      -0.151722
                                                         0.881274      -0.583957
                                                         4.510873      -1.036243

                          1       3    4px               0.082134       0.052233
                                                         0.140000       0.000000
                                                         0.279625       0.094300
                                                         0.881274      -0.581323
                                                         4.510873      -0.510604
                          1       3    4py               0.082134       0.052233
                                                         0.140000       0.000000
                                                         0.279625       0.094300
                                                         0.881274      -0.581323
                                                         4.510873      -0.510604
                          1       3    4pz               0.082134       0.052233
                                                         0.140000       0.000000
                                                         0.279625       0.094300
                                                         0.881274      -0.581323
                                                         4.510873      -0.510604

                          1       4    5px               0.082134       0.024659
                                                         0.140000       0.076570
                                                         0.279625      -0.053289
                                                         0.881274       0.410720
                                                         4.510873       0.000000
                          1       4    5py               0.082134       0.024659
                                                         0.140000       0.076570
                                                         0.279625      -0.053289
                                                         0.881274       0.410720
                                                         4.510873       0.000000
                          1       4    5pz               0.082134       0.024659
                                                         0.140000       0.076570
                                                         0.279625      -0.053289
                                                         0.881274       0.410720
                                                         4.510873       0.000000

                          1       5    4dx2              0.082134       0.000404
                                                         0.140000       0.000000
                                                         0.279625       0.111576
                                                         0.881274       0.641739
                                                         4.510873      -0.272354
                          1       5    4dxy              0.082134       0.000700
                                                         0.140000       0.000000
                                                         0.279625       0.193255
                                                         0.881274       1.111524
                                                         4.510873      -0.471731
                          1       5    4dxz              0.082134       0.000700
                                                         0.140000       0.000000
                                                         0.279625       0.193255
                                                         0.881274       1.111524
                                                         4.510873      -0.471731
                          1       5    4dy2              0.082134       0.000404
                                                         0.140000       0.000000
                                                         0.279625       0.111576
                                                         0.881274       0.641739
                                                         4.510873      -0.272354
                          1       5    4dyz              0.082134       0.000700
                                                         0.140000       0.000000
                                                         0.279625       0.193255
                                                         0.881274       1.111524
                                                         4.510873      -0.471731
                          1       5    4dz2              0.082134       0.000404
                                                         0.140000       0.000000
                                                         0.279625       0.111576
                                                         0.881274       0.641739
                                                         4.510873      -0.272354

                          1       6    5dx2              0.082134       0.036596
                                                         0.140000      -0.054919
                                                         0.279625      -0.008802
                                                         0.881274      -0.232953
                                                         4.510873       0.000000
                          1       6    5dxy              0.082134       0.063387
                                                         0.140000      -0.095122
                                                         0.279625      -0.015246
                                                         0.881274      -0.403486
                                                         4.510873       0.000000
                          1       6    5dxz              0.082134       0.063387
                                                         0.140000      -0.095122
                                                         0.279625      -0.015246
                                                         0.881274      -0.403486
                                                         4.510873       0.000000
                          1       6    5dy2              0.082134       0.036596
                                                         0.140000      -0.054919
                                                         0.279625      -0.008802
                                                         0.881274      -0.232953
                                                         4.510873       0.000000
                          1       6    5dyz              0.082134       0.063387
                                                         0.140000      -0.095122
                                                         0.279625      -0.015246
                                                         0.881274      -0.403486
                                                         4.510873       0.000000
                          1       6    5dz2              0.082134       0.036596
                                                         0.140000      -0.054919
                                                         0.279625      -0.008802
                                                         0.881274      -0.232953
                                                         4.510873       0.000000

                          1       7    5fx3              0.082134      -0.000468
                                                         0.140000       0.012301
                                                         0.279625       0.033988
                                                         0.881274       0.068820
                                                         4.510873       0.000000
                          1       7    5fx2y             0.082134      -0.001048
                                                         0.140000       0.027506
                                                         0.279625       0.075998
                                                         0.881274       0.153886
                                                         4.510873       0.000000
                          1       7    5fx2z             0.082134      -0.001048
                                                         0.140000       0.027506
                                                         0.279625       0.075998
                                                         0.881274       0.153886
                                                         4.510873       0.000000
                          1       7    5fxy2             0.082134      -0.001048
                                                         0.140000       0.027506
                                                         0.279625       0.075998
                                                         0.881274       0.153886
                                                         4.510873       0.000000
                          1       7    5fxyz             0.082134      -0.001814
                                                         0.140000       0.047643
                                                         0.279625       0.131633
                                                         0.881274       0.266539
                                                         4.510873       0.000000
                          1       7    5fxz2             0.082134      -0.001048
                                                         0.140000       0.027506
                                                         0.279625       0.075998
                                                         0.881274       0.153886
                                                         4.510873       0.000000
                          1       7    5fy3              0.082134      -0.000468
                                                         0.140000       0.012301
                                                         0.279625       0.033988
                                                         0.881274       0.068820
                                                         4.510873       0.000000
                          1       7    5fy2z             0.082134      -0.001048
                                                         0.140000       0.027506
                                                         0.279625       0.075998
                                                         0.881274       0.153886
                                                         4.510873       0.000000
                          1       7    5fyz2             0.082134      -0.001048
                                                         0.140000       0.027506
                                                         0.279625       0.075998
                                                         0.881274       0.153886
                                                         4.510873       0.000000
                          1       7    5fz3              0.082134      -0.000468
                                                         0.140000       0.012301
                                                         0.279625       0.033988
                                                         0.881274       0.068820
                                                         4.510873       0.000000

                          2       1    1s              839.324562      -0.573042
                                                       126.174643      -1.097170
                                                        28.339532      -1.625259
                                                         7.329111      -1.470436
                                                         2.208031      -0.468381
                                                         0.410209      -0.026981
                                                         0.151694      -0.023850

                          2       2    2s              839.324562       0.050684
                                                       126.174643      -0.115654
                                                        28.339532      -0.168560
                                                         7.329111      -0.289389
                                                         2.208031      -0.246292
                                                         0.410209       0.238157
                                                         0.151694       0.084355

                          2       3    3s              839.324562      -2.590681
                                                       126.174643       0.127370
                                                        28.339532      -1.260776
                                                         7.329111      -0.567183
                                                         2.208031      -0.073452
                                                         0.410209      -0.458063
                                                         0.151694       0.280188

     RI Auxiliary Basis Set             RI_aug-DZVP-MOLOPT-ae_N_RI_035_s_p_d_f_g

       Number of orbital shell sets:                                          13
       Number of orbital shells:                                              13
       Number of primitive Cartesian functions:                               13
       Number of Cartesian basis functions:                                   40
       Number of spherical basis functions:                                   35
       Norm type:                                                              2

       Normalised Cartesian orbitals:

                        Set   Shell   Orbital            Exponent    Coefficient

                          1       1    1s                0.155297       0.176312

                          2       1   11dx2              0.191101       0.090912
                          2       1   11dxy              0.191101       0.157464
                          2       1   11dxz              0.191101       0.157464
                          2       1   11dy2              0.191101       0.090912
                          2       1   11dyz              0.191101       0.157464
                          2       1   11dz2              0.191101       0.090912

                          3       1    7px               0.280108       0.290467
                          3       1    7py               0.280108       0.290467
                          3       1    7pz               0.280108       0.290467

                          4       1    2s                0.348203       0.323061

                          5       1   13fx3              0.401700       0.189118
                          5       1   13fx2y             0.401700       0.422882
                          5       1   13fx2z             0.401700       0.422882
                          5       1   13fxy2             0.401700       0.422882
                          5       1   13fxyz             0.401700       0.732452
                          5       1   13fxz2             0.401700       0.422882
                          5       1   13fy3              0.401700       0.189118
                          5       1   13fy2z             0.401700       0.422882
                          5       1   13fyz2             0.401700       0.422882
                          5       1   13fz3              0.401700       0.189118

                          6       1    8px               0.444336       0.517106
                          6       1    8py               0.444336       0.517106
                          6       1    8pz               0.444336       0.517106

                          7       1   12dx2              0.761687       1.022158
                          7       1   12dxy              0.761687       1.770430
                          7       1   12dxz              0.761687       1.770430
                          7       1   12dy2              0.761687       1.022158
                          7       1   12dyz              0.761687       1.770430
                          7       1   12dz2              0.761687       1.022158

                          8       1    3s                1.114597       0.773123

                          9       1    9px               1.400889       2.172425
                          9       1    9py               1.400889       2.172425
                          9       1    9pz               1.400889       2.172425

                         10       1    4s                3.952925       1.998016

                         11       1   10px               6.658811      15.247055
                         11       1   10py               6.658811      15.247055
                         11       1   10pz               6.658811      15.247055

                         12       1    5s               13.787097       5.099349

                         13       1    6s               47.491635      12.893563

       Atomic covalent radius [Angstrom]:                                  0.820

       Atomic van der Waals radius [Angstrom]:                             1.920

     The atoms of this atomic kind are PAW atoms (GAPW):
       Hard Gaussian function radius:                                      1.512
       Rho0 radius:                                                        1.512
       Maximum GTO radius used for PAW projector construction:            24.566

     GAPW Soft Basis Set                                 aug-DZVP-MOLOPT-ae_soft

       Number of orbital shell sets:                                           2
       Number of orbital shells:                                              10
       Number of primitive Cartesian functions:                                8
       Number of Cartesian basis functions:                                   35
       Number of spherical basis functions:                                   30
       Norm type:                                                              2

       Normalised Cartesian orbitals:

                        Set   Shell   Orbital            Exponent    Coefficient

                          1       1    2s                0.082134       0.085473
                                                         0.140000       0.049675
                                                         0.279625      -0.030750
                                                         0.881274       0.022030
                                                         4.510873       0.000000

                          1       2    3px               0.082134      -0.004879
                                                         0.140000       0.000000
                                                         0.279625      -0.151722
                                                         0.881274      -0.583957
                                                         4.510873       0.000000
                          1       2    3py               0.082134      -0.004879
                                                         0.140000       0.000000
                                                         0.279625      -0.151722
                                                         0.881274      -0.583957
                                                         4.510873       0.000000
                          1       2    3pz               0.082134      -0.004879
                                                         0.140000       0.000000
                                                         0.279625      -0.151722
                                                         0.881274      -0.583957
                                                         4.510873       0.000000

                          1       3    4px               0.082134       0.052233
                                                         0.140000       0.000000
                                                         0.279625       0.094300
                                                         0.881274      -0.581323
                                                         4.510873       0.000000
                          1       3    4py               0.082134       0.052233
                                                         0.140000       0.000000
                                                         0.279625       0.094300
                                                         0.881274      -0.581323
                                                         4.510873       0.000000
                          1       3    4pz               0.082134       0.052233
                                                         0.140000       0.000000
                                                         0.279625       0.094300
                                                         0.881274      -0.581323
                                                         4.510873       0.000000

                          1       4    5px               0.082134       0.024659
                                                         0.140000       0.076570
                                                         0.279625      -0.053289
                                                         0.881274       0.410720
                                                         4.510873       0.000000
                          1       4    5py               0.082134       0.024659
                                                         0.140000       0.076570
                                                         0.279625      -0.053289
                                                         0.881274       0.410720
                                                         4.510873       0.000000
                          1       4    5pz               0.082134       0.024659
                                                         0.140000       0.076570
                                                         0.279625      -0.053289
                                                         0.881274       0.410720
                                                         4.510873       0.000000

                          1       5    4dx2              0.082134       0.000404
                                                         0.140000       0.000000
                                                         0.279625       0.111576
                                                         0.881274       0.641739
                                                         4.510873       0.000000
                          1       5    4dxy              0.082134       0.000700
                                                         0.140000       0.000000
                                                         0.279625       0.193255
                                                         0.881274       1.111524
                                                         4.510873       0.000000
                          1       5    4dxz              0.082134       0.000700
                                                         0.140000       0.000000
                                                         0.279625       0.193255
                                                         0.881274       1.111524
                                                         4.510873       0.000000
                          1       5    4dy2              0.082134       0.000404
                                                         0.140000       0.000000
                                                         0.279625       0.111576
                                                         0.881274       0.641739
                                                         4.510873       0.000000
                          1       5    4dyz              0.082134       0.000700
                                                         0.140000       0.000000
                                                         0.279625       0.193255
                                                         0.881274       1.111524
                                                         4.510873       0.000000
                          1       5    4dz2              0.082134       0.000404
                                                         0.140000       0.000000
                                                         0.279625       0.111576
                                                         0.881274       0.641739
                                                         4.510873       0.000000

                          1       6    5dx2              0.082134       0.036596
                                                         0.140000      -0.054919
                                                         0.279625      -0.008802
                                                         0.881274      -0.232953
                                                         4.510873       0.000000
                          1       6    5dxy              0.082134       0.063387
                                                         0.140000      -0.095122
                                                         0.279625      -0.015246
                                                         0.881274      -0.403486
                                                         4.510873       0.000000
                          1       6    5dxz              0.082134       0.063387
                                                         0.140000      -0.095122
                                                         0.279625      -0.015246
                                                         0.881274      -0.403486
                                                         4.510873       0.000000
                          1       6    5dy2              0.082134       0.036596
                                                         0.140000      -0.054919
                                                         0.279625      -0.008802
                                                         0.881274      -0.232953
                                                         4.510873       0.000000
                          1       6    5dyz              0.082134       0.063387
                                                         0.140000      -0.095122
                                                         0.279625      -0.015246
                                                         0.881274      -0.403486
                                                         4.510873       0.000000
                          1       6    5dz2              0.082134       0.036596
                                                         0.140000      -0.054919
                                                         0.279625      -0.008802
                                                         0.881274      -0.232953
                                                         4.510873       0.000000

                          1       7    5fx3              0.082134      -0.000468
                                                         0.140000       0.012301
                                                         0.279625       0.033988
                                                         0.881274       0.068820
                                                         4.510873       0.000000
                          1       7    5fx2y             0.082134      -0.001048
                                                         0.140000       0.027506
                                                         0.279625       0.075998
                                                         0.881274       0.153886
                                                         4.510873       0.000000
                          1       7    5fx2z             0.082134      -0.001048
                                                         0.140000       0.027506
                                                         0.279625       0.075998
                                                         0.881274       0.153886
                                                         4.510873       0.000000
                          1       7    5fxy2             0.082134      -0.001048
                                                         0.140000       0.027506
                                                         0.279625       0.075998
                                                         0.881274       0.153886
                                                         4.510873       0.000000
                          1       7    5fxyz             0.082134      -0.001814
                                                         0.140000       0.047643
                                                         0.279625       0.131633
                                                         0.881274       0.266539
                                                         4.510873       0.000000
                          1       7    5fxz2             0.082134      -0.001048
                                                         0.140000       0.027506
                                                         0.279625       0.075998
                                                         0.881274       0.153886
                                                         4.510873       0.000000
                          1       7    5fy3              0.082134      -0.000468
                                                         0.140000       0.012301
                                                         0.279625       0.033988
                                                         0.881274       0.068820
                                                         4.510873       0.000000
                          1       7    5fy2z             0.082134      -0.001048
                                                         0.140000       0.027506
                                                         0.279625       0.075998
                                                         0.881274       0.153886
                                                         4.510873       0.000000
                          1       7    5fyz2             0.082134      -0.001048
                                                         0.140000       0.027506
                                                         0.279625       0.075998
                                                         0.881274       0.153886
                                                         4.510873       0.000000
                          1       7    5fz3              0.082134      -0.000468
                                                         0.140000       0.012301
                                                         0.279625       0.033988
                                                         0.881274       0.068820
                                                         4.510873       0.000000

                          2       1    1s                2.208031      -0.468381
                                                         0.410209      -0.026981
                                                         0.151694      -0.023850

                          2       2    2s                2.208031      -0.246292
                                                         0.410209       0.238157
                                                         0.151694       0.084355

                          2       3    3s                2.208031      -0.073452
                                                         0.410209      -0.458063
                                                         0.151694       0.280188

     AE Potential information for                                            ALL

       Description:                                       All-electron potential
                                          Krack, Parrinello, PCCP 2, 2105 (2000)

       Gaussian exponent of the core charge distribution:               2.655410
       Electronic configuration (s p d ...):                           4   1   0


 MOLECULE KIND INFORMATION


 All atoms are their own molecule, skipping detailed information


 TOTAL NUMBERS AND MAXIMUM NUMBERS

  Total number of            - Atomic kinds:                                   1
                             - Atoms:                                          2
                             - Shell sets:                                     4
                             - Shells:                                        20
                             - Primitive Cartesian functions:                 24
                             - Cartesian basis functions:                     70
                             - Spherical basis functions:                     60

  Maximum angular momentum of the orbital basis functions:                     3


 MODULE QUICKSTEP: ATOMIC COORDINATES IN ANGSTROM

   Atom Kind Element         X             Y             Z       Z(eff)     Mass
      1    1 B     5     15.793777     15.000000     15.000000   5.0000  10.8110
      2    1 B     5     14.206223     15.000000     15.000000   5.0000  10.8110



 SCF PARAMETERS         Density guess:                                    ATOMIC
                        --------------------------------------------------------
                        max_scf:                                             500
                        max_scf_history:                                       0
                        max_diis:                                              4
                        --------------------------------------------------------
                        eps_scf:                                        1.00E-06
                        eps_scf_history:                                0.00E+00
                        eps_diis:                                       1.00E-01
                        eps_eigval:                                     1.00E-05
                        --------------------------------------------------------
                        level_shift [a.u.]:                             0.000000
                        added MOs                                        55    0
                        --------------------------------------------------------
                        Mixing method:                            BROYDEN_MIXING
                                                charge density mixing in g-space
                        --------------------------------------------------------
                        No outer SCF

 PW_GRID| Information for grid number                                          1
 PW_GRID| Grid distributed over                                    24 processors
 PW_GRID| Real space group dimensions                                    24    1
 PW_GRID| the grid is blocked:                                                NO
 PW_GRID| Cutoff [a.u.]                                                    250.0
 PW_GRID| spherical cutoff:                                                   NO
 PW_GRID|   Bounds   1           -202     202                Points:         405
 PW_GRID|   Bounds   2           -202     202                Points:         405
 PW_GRID|   Bounds   3           -202     202                Points:         405
 PW_GRID| Volume element (a.u.^3)  0.2743E-02     Volume (a.u.^3)    182205.0337
 PW_GRID| Grid span                                                    FULLSPACE
 PW_GRID|   Distribution                         Average         Max         Min
 PW_GRID|   G-Vectors                          2767921.9     2768175     2767770
 PW_GRID|   G-Rays                                6834.4        6835        6834
 PW_GRID|   Real Space Points                  2767921.9     2788425     2624400

 PW_GRID| Information for grid number                                          2
 PW_GRID| Number of the reference grid                                         1
 PW_GRID| Grid distributed over                                    24 processors
 PW_GRID| Real space group dimensions                                    24    1
 PW_GRID| the grid is blocked:                                                NO
 PW_GRID| Cutoff [a.u.]                                                     83.3
 PW_GRID| spherical cutoff:                                                   NO
 PW_GRID|   Bounds   1           -120     119                Points:         240
 PW_GRID|   Bounds   2           -120     119                Points:         240
 PW_GRID|   Bounds   3           -120     119                Points:         240
 PW_GRID| Volume element (a.u.^3)  0.1318E-01     Volume (a.u.^3)    182205.0337
 PW_GRID| Grid span                                                    FULLSPACE
 PW_GRID|   Distribution                         Average         Max         Min
 PW_GRID|   G-Vectors                           576000.0      576240      575760
 PW_GRID|   G-Rays                                2400.0        2401        2399
 PW_GRID|   Real Space Points                   576000.0      576000      576000

 PW_GRID| Information for grid number                                          3
 PW_GRID| Number of the reference grid                                         1
 PW_GRID| Grid distributed over                                    24 processors
 PW_GRID| Real space group dimensions                                    24    1
 PW_GRID| the grid is blocked:                                                NO
 PW_GRID| Cutoff [a.u.]                                                     27.8
 PW_GRID| spherical cutoff:                                                   NO
 PW_GRID|   Bounds   1            -67      67                Points:         135
 PW_GRID|   Bounds   2            -67      67                Points:         135
 PW_GRID|   Bounds   3            -67      67                Points:         135
 PW_GRID| Volume element (a.u.^3)  0.7406E-01     Volume (a.u.^3)    182205.0337
 PW_GRID| Grid span                                                    FULLSPACE
 PW_GRID|   Distribution                         Average         Max         Min
 PW_GRID|   G-Vectors                           102515.6      102735      102330
 PW_GRID|   G-Rays                                 759.4         761         758
 PW_GRID|   Real Space Points                   102515.6      109350       91125

 PW_GRID| Information for grid number                                          4
 PW_GRID| Number of the reference grid                                         1
 PW_GRID| Grid distributed over                                    24 processors
 PW_GRID| Real space group dimensions                                    24    1
 PW_GRID| the grid is blocked:                                                NO
 PW_GRID| Cutoff [a.u.]                                                      9.3
 PW_GRID| spherical cutoff:                                                   NO
 PW_GRID|   Bounds   1            -40      39                Points:          80
 PW_GRID|   Bounds   2            -40      39                Points:          80
 PW_GRID|   Bounds   3            -40      39                Points:          80
 PW_GRID| Volume element (a.u.^3)  0.3559         Volume (a.u.^3)    182205.0337
 PW_GRID| Grid span                                                    FULLSPACE
 PW_GRID|   Distribution                         Average         Max         Min
 PW_GRID|   G-Vectors                            21333.3       21360       21280
 PW_GRID|   G-Rays                                 266.7         267         266
 PW_GRID|   Real Space Points                    21333.3       25600       19200

 POISSON| Solver                                                         WAVELET
 POISSON| Wavelet| Scaling function                                           40
 POISSON| Periodicity                                                       NONE

 RS_GRID| Information for grid number                                          1
 RS_GRID|   Bounds   1           -202     202                Points:         405
 RS_GRID|   Bounds   2           -202     202                Points:         405
 RS_GRID|   Bounds   3           -202     202                Points:         405
 RS_GRID| Real space distribution over                                  4 groups
 RS_GRID| Real space distribution along direction                              2
 RS_GRID| Border size                                                         36
 RS_GRID| Real space distribution over                                  6 groups
 RS_GRID| Real space distribution along direction                              3
 RS_GRID| Border size                                                         36
 RS_GRID|   Distribution                         Average         Max         Min
 RS_GRID|   Planes                                 173.2         174         173
 RS_GRID|   Distribution                         Average         Max         Min
 RS_GRID|   Planes                                 139.5         140         139

 RS_GRID| Information for grid number                                          2
 RS_GRID|   Bounds   1           -120     119                Points:         240
 RS_GRID|   Bounds   2           -120     119                Points:         240
 RS_GRID|   Bounds   3           -120     119                Points:         240
 RS_GRID| Real space distribution over                                  4 groups
 RS_GRID| Real space distribution along direction                              2
 RS_GRID| Border size                                                         39
 RS_GRID| Real space distribution over                                  6 groups
 RS_GRID| Real space distribution along direction                              3
 RS_GRID| Border size                                                         39
 RS_GRID|   Distribution                         Average         Max         Min
 RS_GRID|   Planes                                 138.0         138         138
 RS_GRID|   Distribution                         Average         Max         Min
 RS_GRID|   Planes                                 118.0         118         118

 RS_GRID| Information for grid number                                          3
 RS_GRID|   Bounds   1            -67      67                Points:         135
 RS_GRID|   Bounds   2            -67      67                Points:         135
 RS_GRID|   Bounds   3            -67      67                Points:         135
 RS_GRID| Real space fully replicated
 RS_GRID| Group size                                                           1

 RS_GRID| Information for grid number                                          4
 RS_GRID|   Bounds   1            -40      39                Points:          80
 RS_GRID|   Bounds   2            -40      39                Points:          80
 RS_GRID|   Bounds   3            -40      39                Points:          80
 RS_GRID| Real space fully replicated
 RS_GRID| Group size                                                           1

  HFX_INFO| Replica ID:                                                        1
  HFX_INFO| FRACTION:                                               0.2500000000
  HFX_INFO| Interaction Potential:                                       COULOMB
  HFX_INFO| EPS_SCHWARZ:                                                 1.0E-10
  HFX_INFO| EPS_SCHWARZ_FORCES                                           1.0E-08
  HFX_INFO| EPS_STORAGE_SCALING:                                         1.0E+00
  HFX_INFO| NBINS:                                                            64
  HFX_INFO| BLOCK_SIZE:                                                        1
  HFX_INFO| Number of periodic shells considered:                           NONE
  HFX_INFO| Number of periodic cells considered:                            NONE

 
 RI-RPA| using GPW style
 

 OVERLAP MATRIX CONDITION NUMBER
 1-Norm Condition Number (Estimate)
   CN : |A|*|A^-1|:  6.628E+000 *  1.761E+003   = 1.167E+004  Log(1-CN):  4.0672
 1-Norm and 2-Norm Condition Numbers using Diagonalization
   CN : |A|*|A^-1|:  6.628E+000 *  1.761E+003   = 1.167E+004  Log(1-CN):  4.0672
   CN : max/min ev:  4.513E+000 /  9.591E-004   = 4.706E+003  Log(2-CN):  3.6726

 Number of electrons:                                                         10
 Number of occupied orbitals:                                                  5
 Number of molecular orbitals:                                                60

 Number of orbital functions:                                                 60
 Number of independent orbital functions:                                     60

 Extrapolation method: initial_guess

 Atomic guess: The first density matrix is obtained in terms of atomic orbitals
               and electronic configurations assigned to each atomic kind

 Guess for atomic kind: B

 Electronic structure
    Total number of core electrons                                          0.00
    Total number of valence electrons                                       5.00
    Total number of electrons                                               5.00
    Multiplicity                                                   not specified
    S      2.00  2.00
    P      1.00


 *******************************************************************************
                  Iteration          Convergence                     Energy [au]
 *******************************************************************************
                          1        0.478540E-01                 -24.326455422583
                          2        0.230834E-01                 -24.328419827544
                          3        0.809223E-03                 -24.329078639833
                          4        0.575629E-06                 -24.329079411789

 Energy components [Hartree]           Total Energy ::          -24.329079411789
                                        Band Energy ::          -13.899544962659
                                     Kinetic Energy ::           24.474308884861
                                   Potential Energy ::          -48.803388296650
                                      Virial (-V/T) ::            1.994066043958
                                        Core Energy ::          -32.336650665617
                                          XC Energy ::           -3.541518263746
                                     Coulomb Energy ::           11.549089517574

 Orbital energies  State     L     Occupation   Energy[a.u.]          Energy[eV]

                       1     0          2.000      -6.542413         -178.028103
                       2     0          2.000      -0.341450           -9.291315

                       1     1          1.000      -0.131820           -3.587017


 Total Electron Density at R=0:                                        66.326855
 Re-scaling the density matrix to get the right number of electrons
                  # Electrons              Trace(P)               Scaling factor
                           10                10.000                        1.000


 SCF WAVEFUNCTION OPTIMIZATION

  Step     Update method      Time    Convergence         Total energy    Change
  ------------------------------------------------------------------------------

  HFX_MEM_INFO| Est. max. program size before HFX [MiB]:                    2170
  HFX_MEM_INFO| Number of cart. primitive ERI's calculated:            780567514
  HFX_MEM_INFO| Number of sph. ERI's calculated:                         4860000
  HFX_MEM_INFO| Number of sph. ERI's stored in-core:                     4860000
  HFX_MEM_INFO| Number of sph. ERI's stored on disk:                           0
  HFX_MEM_INFO| Number of sph. ERI's calculated on the fly:                    0
  HFX_MEM_INFO| Total memory consumption ERI's RAM [MiB]:                     21
  HFX_MEM_INFO| Whereof max-vals [MiB]:                                        1
  HFX_MEM_INFO| Total compression factor ERI's RAM:                         1.82
  HFX_MEM_INFO| Total memory consumption ERI's disk [MiB]:                     0
  HFX_MEM_INFO| Total compression factor ERI's disk:                        0.00
  HFX_MEM_INFO| Size of density/Fock matrix [MiB]:                             0
  HFX_MEM_INFO| Size of buffers [MiB]:                                        16
  HFX_MEM_INFO| Est. max. program size after HFX  [MiB]:                    2709

     1 NoMix/Diag. 0.10E+00   19.6     0.44020454       -49.4361328135 -4.94E+01
     2 Broy./Diag. 0.10E+00    4.8     0.02831793       -49.1803433501  2.56E-01
     3 Broy./Diag. 0.10E+00    5.0     0.01366347       -49.1140563213  6.63E-02
     4 Broy./Diag. 0.10E+00    4.9     0.06299754       -49.1136457798  4.11E-04
     5 Broy./Diag. 0.10E+00    4.9     0.00987908       -49.2161500315 -1.03E-01
     6 Broy./Diag. 0.10E+00    4.9     0.01550571       -49.2513164941 -3.52E-02
     7 Broy./Diag. 0.10E+00    5.1     0.00474528       -49.2807913665 -2.95E-02
     8 Broy./Diag. 0.10E+00    5.1     0.00045070       -49.2818886455 -1.10E-03
     9 Broy./Diag. 0.10E+00    5.3     0.00388171       -49.2761130685  5.78E-03
    10 Broy./Diag. 0.10E+00    5.4     0.00086156       -49.2709170495  5.20E-03
    11 Broy./Diag. 0.10E+00    5.3     0.00134903       -49.2715413283 -6.24E-04
    12 Broy./Diag. 0.10E+00    5.3     0.00178664       -49.2753579114 -3.82E-03
    13 Broy./Diag. 0.10E+00    5.3     0.00060901       -49.2787928571 -3.43E-03
    14 Broy./Diag. 0.10E+00    5.4     0.00064374       -49.2784078420  3.85E-04
    15 Broy./Diag. 0.10E+00    5.3     0.00043857       -49.2778576931  5.50E-04
    16 Broy./Diag. 0.10E+00    5.3     0.00019690       -49.2779598590 -1.02E-04
    17 Broy./Diag. 0.10E+00    5.4     0.00042290       -49.2770590534  9.01E-04
    18 Broy./Diag. 0.10E+00    5.4     0.00012013       -49.2762954739  7.64E-04
    19 Broy./Diag. 0.10E+00    5.4     0.00036519       -49.2764634519 -1.68E-04
    20 Broy./Diag. 0.10E+00    5.3     0.00010297       -49.2770000682 -5.37E-04
    21 Broy./Diag. 0.10E+00    5.4     0.00004540       -49.2770147766 -1.47E-05
    22 Broy./Diag. 0.10E+00    5.4     0.00013074       -49.2769752428  3.95E-05
    23 Broy./Diag. 0.10E+00    5.3     0.00012711       -49.2769997962 -2.46E-05
    24 Broy./Diag. 0.10E+00    5.4     0.00005088       -49.2769389496  6.08E-05
    25 Broy./Diag. 0.10E+00    5.4     0.00005208       -49.2768037042  1.35E-04
    26 Broy./Diag. 0.10E+00    5.4     0.00005559       -49.2766812189  1.22E-04
    27 Broy./Diag. 0.10E+00    5.4     0.00004283       -49.2766303841  5.08E-05
    28 Broy./Diag. 0.10E+00    5.4     0.00003310       -49.2765674702  6.29E-05
    29 Broy./Diag. 0.10E+00    5.3     0.00002014       -49.2765461896  2.13E-05
    30 Broy./Diag. 0.10E+00    5.4     0.00007962       -49.2765576975 -1.15E-05
    31 Broy./Diag. 0.10E+00    5.3     0.00005884       -49.2765651958 -7.50E-06
    32 Broy./Diag. 0.10E+00    5.3     0.00002224       -49.2765606888  4.51E-06
    33 Broy./Diag. 0.10E+00    5.4     0.00005661       -49.2765541990  6.49E-06
    34 Broy./Diag. 0.10E+00    5.4     0.00004504       -49.2765464771  7.72E-06
    35 Broy./Diag. 0.10E+00    5.4     0.00002189       -49.2765473616 -8.84E-07
    36 Broy./Diag. 0.10E+00    5.4     0.00001545       -49.2765529438 -5.58E-06
    37 Broy./Diag. 0.10E+00    5.4     0.00001059       -49.2765397019  1.32E-05
    38 Broy./Diag. 0.10E+00    5.4     0.00000633       -49.2765165197  2.32E-05
    39 Broy./Diag. 0.10E+00    5.3     0.00001925       -49.2764966836  1.98E-05
    40 Broy./Diag. 0.10E+00    5.4     0.00001490       -49.2764885736  8.11E-06
    41 Broy./Diag. 0.10E+00    5.4     0.00001097       -49.2765018704 -1.33E-05
    42 Broy./Diag. 0.10E+00    5.6     0.00000613       -49.2765066554 -4.79E-06
    43 Broy./Diag. 0.10E+00    5.4     0.00000644       -49.2765031882  3.47E-06
    44 Broy./Diag. 0.10E+00    5.4     0.00001192       -49.2764978844  5.30E-06
    45 Broy./Diag. 0.10E+00    5.4     0.00001285       -49.2764941701  3.71E-06
    46 Broy./Diag. 0.10E+00    5.4     0.00001183       -49.2764952188 -1.05E-06
    47 Broy./Diag. 0.10E+00    5.4     0.00000793       -49.2764943941  8.25E-07
    48 Broy./Diag. 0.10E+00    5.4     0.00000841       -49.2764857474  8.65E-06
    49 Broy./Diag. 0.10E+00    5.5     0.00000775       -49.2764833074  2.44E-06
    50 Broy./Diag. 0.10E+00    5.4     0.00000632       -49.2764807396  2.57E-06
    51 Broy./Diag. 0.10E+00    5.4     0.00000568       -49.2764813838 -6.44E-07
    52 Broy./Diag. 0.10E+00    5.4     0.00000428       -49.2764815979 -2.14E-07
    53 Broy./Diag. 0.10E+00    5.4     0.00000456       -49.2764810916  5.06E-07
    54 Broy./Diag. 0.10E+00    5.4     0.00000332       -49.2764811636 -7.20E-08
    55 Broy./Diag. 0.10E+00    5.3     0.00000331       -49.2764809863  1.77E-07
    56 Broy./Diag. 0.10E+00    5.4     0.00000182       -49.2764810761 -8.98E-08
    57 Broy./Diag. 0.10E+00    5.4     0.00000171       -49.2764810640  1.21E-08
    58 Broy./Diag. 0.10E+00    5.5     0.00000152       -49.2764815697 -5.06E-07
    59 Broy./Diag. 0.10E+00    5.3     0.00000113       -49.2764810652  5.05E-07
    60 Broy./Diag. 0.10E+00    5.4     0.00000103       -49.2764806745  3.91E-07
    61 Broy./Diag. 0.10E+00    5.4     0.00000249       -49.2764801839  4.91E-07
    62 Broy./Diag. 0.10E+00    5.3     0.00000370       -49.2764787959  1.39E-06
    63 Broy./Diag. 0.10E+00    5.3     0.00000585       -49.2764789549 -1.59E-07
    64 Broy./Diag. 0.10E+00    5.4     0.00000566       -49.2764801029 -1.15E-06
    65 Broy./Diag. 0.10E+00    5.4     0.00000545       -49.2764797581  3.45E-07
    66 Broy./Diag. 0.10E+00    5.4     0.00000595       -49.2764799833 -2.25E-07
    67 Broy./Diag. 0.10E+00    5.5     0.00001132       -49.2764826052 -2.62E-06
    68 Broy./Diag. 0.10E+00    5.4     0.00001229       -49.2764828931 -2.88E-07
    69 Broy./Diag. 0.10E+00    5.4     0.00001774       -49.2764816202  1.27E-06
    70 Broy./Diag. 0.10E+00    5.3     0.00002546       -49.2764826016 -9.81E-07
    71 Broy./Diag. 0.10E+00    5.4     0.00003652       -49.2764836279 -1.03E-06
    72 Broy./Diag. 0.10E+00    5.4     0.00005228       -49.2764843035 -6.76E-07
    73 Broy./Diag. 0.10E+00    5.4     0.00007476       -49.2764841655  1.38E-07
    74 Broy./Diag. 0.10E+00    5.4     0.00010692       -49.2764835653  6.00E-07
    75 Broy./Diag. 0.10E+00    5.3     0.00015295       -49.2764834002  1.65E-07
    76 Broy./Diag. 0.10E+00    5.4     0.00021879       -49.2764831264  2.74E-07
    77 Broy./Diag. 0.10E+00    5.4     0.00031293       -49.2764817616  1.36E-06
    78 Broy./Diag. 0.10E+00    5.3     0.00044770       -49.2764820745 -3.13E-07
    79 Broy./Diag. 0.10E+00    5.3     0.00064057       -49.2764829798 -9.05E-07
    80 Broy./Diag. 0.10E+00    5.4     0.00091656       -49.2764844610 -1.48E-06
    81 Broy./Diag. 0.10E+00    5.4     0.00131130       -49.2764857840 -1.32E-06
    82 Broy./Diag. 0.10E+00    5.4     0.00187550       -49.2764851953  5.89E-07
    83 Broy./Diag. 0.10E+00    5.4     0.00268157       -49.2764830264  2.17E-06
    84 Broy./Diag. 0.10E+00    5.4     0.00383195       -49.2764805688  2.46E-06
    85 Broy./Diag. 0.10E+00    5.4     0.00546951       -49.2764761996  4.37E-06
    86 Broy./Diag. 0.10E+00    5.3     0.00778783       -49.2764652852  1.09E-05
    87 Broy./Diag. 0.10E+00    5.3     0.01103698       -49.2764539726  1.13E-05
    88 Broy./Diag. 0.10E+00    5.4     0.01548884       -49.2764375331  1.64E-05
    89 Broy./Diag. 0.10E+00    5.4     0.02131369       -49.2764064063  3.11E-05
    90 Broy./Diag. 0.10E+00    5.4     0.02821834       -49.2763416313  6.48E-05
    91 Broy./Diag. 0.10E+00    5.3     0.03468967       -49.2762073477  1.34E-04
    92 Broy./Diag. 0.10E+00    5.4     0.03841931       -49.2759514215  2.56E-04
    93 Broy./Diag. 0.10E+00    5.4     0.05554957       -49.2754874799  4.64E-04
    94 Broy./Diag. 0.10E+00    5.4     0.06734865       -49.2747080787  7.79E-04
    95 Broy./Diag. 0.10E+00    5.3     0.06789513       -49.2735668823  1.14E-03
    96 Broy./Diag. 0.10E+00    5.4     0.05821324       -49.2722127733  1.35E-03
    97 Broy./Diag. 0.10E+00    5.5     0.04406281       -49.2708961043  1.32E-03
    98 Broy./Diag. 0.10E+00    5.4     0.03056311       -49.2698158043  1.08E-03
    99 Broy./Diag. 0.10E+00    5.3     0.02742749       -49.2690375101  7.78E-04
   100 Broy./Diag. 0.10E+00    5.3     0.02351517       -49.2685300921  5.07E-04
   101 Broy./Diag. 0.10E+00    5.4     0.01933899       -49.2682562076  2.74E-04
   102 Broy./Diag. 0.10E+00    5.4     0.01564213       -49.2683562659 -1.00E-04
   103 Broy./Diag. 0.10E+00    5.4     0.01298998       -49.2698820629 -1.53E-03
   104 Broy./Diag. 0.10E+00    5.4     0.01022484       -49.2699513600 -6.93E-05
   105 Broy./Diag. 0.10E+00    5.5     0.00770436       -49.2679009511  2.05E-03
   106 Broy./Diag. 0.10E+00    5.4     0.00467553       -49.2729434537 -5.04E-03
   107 Broy./Diag. 0.10E+00    5.3     0.00373101       -49.2634126574  9.53E-03
   108 Broy./Diag. 0.10E+00    5.4     0.00578227       -49.3060255757 -4.26E-02
   109 Broy./Diag. 0.10E+00    5.4     0.00825759       -49.2719340911  3.41E-02
   110 Broy./Diag. 0.10E+00    5.4     0.01226047       -49.3231182113 -5.12E-02
   111 Broy./Diag. 0.10E+00    5.3     0.02878051       -49.3085805823  1.45E-02
   112 Broy./Diag. 0.10E+00    5.3     0.03185861       -49.3044205247  4.16E-03
   113 Broy./Diag. 0.10E+00    5.4     0.03395567       -49.2940277492  1.04E-02
   114 Broy./Diag. 0.10E+00    5.4     0.04276507       -49.2997232892 -5.70E-03
   115 Broy./Diag. 0.10E+00    5.4     0.04434514       -49.2976980496  2.03E-03
   116 Broy./Diag. 0.10E+00    5.4     0.06809185       -49.2948118684  2.89E-03
   117 Broy./Diag. 0.10E+00    5.4     0.05123305       -49.2921008949  2.71E-03
   118 Broy./Diag. 0.10E+00    5.3     0.03699883       -49.2917886009  3.12E-04
   119 Broy./Diag. 0.10E+00    5.4     0.03439728       -49.2929048326 -1.12E-03
   120 Broy./Diag. 0.10E+00    5.4     0.02575926       -49.3003459069 -7.44E-03
   121 Broy./Diag. 0.10E+00    5.4     0.03474892       -49.2905909067  9.76E-03
   122 Broy./Diag. 0.10E+00    5.5     0.02149474       -49.2825019671  8.09E-03
   123 Broy./Diag. 0.10E+00    5.3     0.02504733       -49.2797491028  2.75E-03
   124 Broy./Diag. 0.10E+00    5.4     0.00673277       -49.2772655814  2.48E-03
   125 Broy./Diag. 0.10E+00    5.4     0.06618549       -49.2780504773 -7.85E-04
   126 Broy./Diag. 0.10E+00    5.4     0.06200260       -49.3004284648 -2.24E-02
   127 Broy./Diag. 0.10E+00    5.4     0.09335781       -49.2845461284  1.59E-02
   128 Broy./Diag. 0.10E+00    5.4     0.07556053       -49.2861223828 -1.58E-03
   129 Broy./Diag. 0.10E+00    5.4     0.03903425       -49.2965983183 -1.05E-02
   130 Broy./Diag. 0.10E+00    5.4     0.02829465       -49.2951777292  1.42E-03
   131 Broy./Diag. 0.10E+00    5.4     0.02490880       -49.2970091393 -1.83E-03
   132 Broy./Diag. 0.10E+00    5.4     0.02178676       -49.3006223290 -3.61E-03
   133 Broy./Diag. 0.10E+00    5.5     0.01586235       -49.3012559585 -6.34E-04
   134 Broy./Diag. 0.10E+00    5.4     0.01077031       -49.3000676169  1.19E-03
   135 Broy./Diag. 0.10E+00    5.4     0.01308298       -49.3074242875 -7.36E-03
   136 Broy./Diag. 0.10E+00    5.4     0.01773246       -49.3162470031 -8.82E-03
   137 Broy./Diag. 0.10E+00    5.4     0.01734650       -49.3105047103  5.74E-03
   138 Broy./Diag. 0.10E+00    5.5     0.00903518       -49.3029367908  7.57E-03
   139 Broy./Diag. 0.10E+00    5.4     0.00703168       -49.3026951426  2.42E-04
   140 Broy./Diag. 0.10E+00    5.5     0.00531374       -49.3021239205  5.71E-04
   141 Broy./Diag. 0.10E+00    5.4     0.00590269       -49.3027382970 -6.14E-04
   142 Broy./Diag. 0.10E+00    5.4     0.00741206       -49.3076975101 -4.96E-03
   143 Broy./Diag. 0.10E+00    5.4     0.00944714       -49.3063395128  1.36E-03
   144 Broy./Diag. 0.10E+00    5.4     0.01149118       -49.3018285927  4.51E-03
   145 Broy./Diag. 0.10E+00    5.4     0.01370952       -49.2989157499  2.91E-03
   146 Broy./Diag. 0.10E+00    5.4     0.01642597       -49.2972454427  1.67E-03
   147 Broy./Diag. 0.10E+00    5.4     0.02033412       -49.2926773072  4.57E-03
   148 Broy./Diag. 0.10E+00    5.4     0.02540997       -49.2792388028  1.34E-02
   149 Broy./Diag. 0.10E+00    5.4     0.02696245       -49.2712303012  8.01E-03
   150 Broy./Diag. 0.10E+00    5.4     0.03853786       -49.2628630339  8.37E-03
   151 Broy./Diag. 0.10E+00    5.4     0.04735405       -49.2564124714  6.45E-03
   152 Broy./Diag. 0.10E+00    5.4     0.05104305       -49.2462097983  1.02E-02
   153 Broy./Diag. 0.10E+00    5.4     0.05036582       -49.2360842800  1.01E-02
   154 Broy./Diag. 0.10E+00    5.4     0.04524095       -49.2170895845  1.90E-02
   155 Broy./Diag. 0.10E+00    5.5     0.03562009       -49.2122249928  4.86E-03
   156 Broy./Diag. 0.10E+00    5.4     0.02442793       -49.2190146509 -6.79E-03
   157 Broy./Diag. 0.10E+00    5.4     0.02210064       -49.2197668545 -7.52E-04
   158 Broy./Diag. 0.10E+00    5.5     0.01727810       -49.2246876646 -4.92E-03
   159 Broy./Diag. 0.10E+00    5.3     0.02681097       -49.2330620833 -8.37E-03
   160 Broy./Diag. 0.10E+00    5.3     0.01985073       -49.2449868745 -1.19E-02
   161 Broy./Diag. 0.10E+00    5.4     0.01602743       -49.2603211158 -1.53E-02
   162 Broy./Diag. 0.10E+00    5.4     0.01681071       -49.2490862505  1.12E-02
   163 Broy./Diag. 0.10E+00    5.4     0.03015866       -49.2545678094 -5.48E-03
   164 Broy./Diag. 0.10E+00    5.4     0.03298826       -49.2434668621  1.11E-02
   165 Broy./Diag. 0.10E+00    5.5     0.04576317       -49.2287977727  1.47E-02
   166 Broy./Diag. 0.10E+00    5.4     0.04706135       -49.2024782417  2.63E-02
   167 Broy./Diag. 0.10E+00    5.4     0.04525546       -49.1897018515  1.28E-02
   168 Broy./Diag. 0.10E+00    5.4     0.08715181       -49.1793301967  1.04E-02
   169 Broy./Diag. 0.10E+00    5.4     0.06763459       -49.1739943959  5.34E-03

[...]
   422 Broy./Diag. 0.10E+00    5.4     0.03191027       -49.3414570625  3.17E-02
   423 Broy./Diag. 0.10E+00    5.4     0.03292496       -49.3120031785  2.95E-02
   424 Broy./Diag. 0.10E+00    5.4     0.01238245       -49.3130965152 -1.09E-03
   425 Broy./Diag. 0.10E+00    5.5     0.02147141       -49.3334940683 -2.04E-02
   426 Broy./Diag. 0.10E+00    5.4     0.02066642       -49.3473452723 -1.39E-02
   427 Broy./Diag. 0.10E+00    5.4     0.02993589       -49.3489604644 -1.62E-03
   428 Broy./Diag. 0.10E+00    5.5     0.03125629       -49.3496869315 -7.26E-04
   429 Broy./Diag. 0.10E+00    5.5     0.03313683       -49.3462846052  3.40E-03
   430 Broy./Diag. 0.10E+00    5.4     0.03795827       -49.3540806614 -7.80E-03
   431 Broy./Diag. 0.10E+00    5.4     0.03467294       -49.3487103165  5.37E-03
   432 Broy./Diag. 0.10E+00    5.5     0.04373255       -49.3449447323  3.77E-03
   433 Broy./Diag. 0.10E+00    5.5     0.04622476       -49.3379563135  6.99E-03
   434 Broy./Diag. 0.10E+00    5.4     0.04878291       -49.3193224819  1.86E-02
   435 Broy./Diag. 0.10E+00    5.4     0.04875827       -49.3035042956  1.58E-02
   436 Broy./Diag. 0.10E+00    5.4     0.04171349       -49.2770401187  2.65E-02
   437 Broy./Diag. 0.10E+00    5.4     0.03113452       -49.2686023249  8.44E-03
   438 Broy./Diag. 0.10E+00    5.4     0.02189110       -49.2603330964  8.27E-03
   439 Broy./Diag. 0.10E+00    5.4     0.02251169       -49.2468432205  1.35E-02
   440 Broy./Diag. 0.10E+00    5.4     0.02708824       -49.2503356452 -3.49E-03
   441 Broy./Diag. 0.10E+00    5.5     0.02322117       -49.2533371745 -3.00E-03

 *** WARNING in pw/ps_wavelet_methods.F:238 :: Density non-zero on the ***
 *** edges of the unit cell: wrong results in WAVELET solver           ***

   442 Broy./Diag. 0.10E+00    5.5     0.04015079       -49.3117145623 -5.84E-02
   443 Broy./Diag. 0.10E+00    5.4     0.03647948       -49.2659947079  4.57E-02

 *** WARNING in pw/ps_wavelet_methods.F:238 :: Density non-zero on the ***
 *** edges of the unit cell: wrong results in WAVELET solver           ***

   444 Broy./Diag. 0.10E+00    5.4     0.04565254       -49.2979252142 -3.19E-02
   445 Broy./Diag. 0.10E+00    5.4     0.11121896       -49.2914039045  6.52E-03
   446 Broy./Diag. 0.10E+00    5.4     0.07621279       -49.3000116231 -8.61E-03
   447 Broy./Diag. 0.10E+00    5.4     0.06563089       -49.3080964686 -8.08E-03
   448 Broy./Diag. 0.10E+00    5.4     0.12583059       -49.3394534646 -3.14E-02
   449 Broy./Diag. 0.10E+00    5.4     0.04228368       -49.3326487580  6.80E-03
   450 Broy./Diag. 0.10E+00    5.4     0.05069022       -49.3099199224  2.27E-02
   451 Broy./Diag. 0.10E+00    5.4     0.01471481       -49.3363603244 -2.64E-02
   452 Broy./Diag. 0.10E+00    5.4     0.01593907       -49.3554911151 -1.91E-02
   453 Broy./Diag. 0.10E+00    5.4     0.11478910       -49.3259547414  2.95E-02
   454 Broy./Diag. 0.10E+00    5.4     0.03775979       -49.3487627357 -2.28E-02
   455 Broy./Diag. 0.10E+00    5.4     0.08161957       -49.3507571270 -1.99E-03
   456 Broy./Diag. 0.10E+00    5.4     0.02674069       -49.2983686510  5.24E-02
   457 Broy./Diag. 0.10E+00    5.4     0.03266602       -49.3083917873 -1.00E-02
   458 Broy./Diag. 0.10E+00    5.4     0.09674626       -49.3508161133 -4.24E-02
   459 Broy./Diag. 0.10E+00    5.4     0.09367363       -49.3567903764 -5.97E-03
   460 Broy./Diag. 0.10E+00    5.4     0.10537174       -49.3407359772  1.61E-02
   461 Broy./Diag. 0.10E+00    5.5     0.05739634       -49.3542890570 -1.36E-02
   462 Broy./Diag. 0.10E+00    5.4     0.12541170       -49.3445015016  9.79E-03
   463 Broy./Diag. 0.10E+00    5.4     0.14286438       -49.3344924303  1.00E-02
   464 Broy./Diag. 0.10E+00    5.5     0.03849495       -49.3121006687  2.24E-02
   465 Broy./Diag. 0.10E+00    5.4     0.04789133       -49.3333409059 -2.12E-02
   466 Broy./Diag. 0.10E+00    5.4     0.01360624       -49.3198632348  1.35E-02
   467 Broy./Diag. 0.10E+00    5.4     0.01850477       -49.3279303870 -8.07E-03
   468 Broy./Diag. 0.10E+00    5.4     0.04850394       -49.3371072167 -9.18E-03
   469 Broy./Diag. 0.10E+00    5.4     0.01534829       -49.3186964731  1.84E-02
   470 Broy./Diag. 0.10E+00    5.4     0.11540656       -49.3178731190  8.23E-04
   471 Broy./Diag. 0.10E+00    5.4     0.10879986       -49.3370976971 -1.92E-02
   472 Broy./Diag. 0.10E+00    5.4     0.07382239       -49.3516987240 -1.46E-02
   473 Broy./Diag. 0.10E+00    5.5     0.03215782       -49.3281056990  2.36E-02
   474 Broy./Diag. 0.10E+00    5.4     0.01752757       -49.3025126202  2.56E-02
   475 Broy./Diag. 0.10E+00    5.4     0.03316665       -49.3094386408 -6.93E-03
   476 Broy./Diag. 0.10E+00    5.4     0.04182188       -49.3163867724 -6.95E-03
   477 Broy./Diag. 0.10E+00    5.4     0.01799095       -49.3137250460  2.66E-03
   478 Broy./Diag. 0.10E+00    5.4     0.01301425       -49.3121532898  1.57E-03
   479 Broy./Diag. 0.10E+00    5.4     0.00877142       -49.3145444510 -2.39E-03
   480 Broy./Diag. 0.10E+00    5.5     0.01150357       -49.3125597053  1.98E-03
   481 Broy./Diag. 0.10E+00    5.4     0.01144472       -49.3039410020  8.62E-03
   482 Broy./Diag. 0.10E+00    5.4     0.01314127       -49.3024888573  1.45E-03
   483 Broy./Diag. 0.10E+00    5.5     0.01985263       -49.3040008751 -1.51E-03
   484 Broy./Diag. 0.10E+00    5.4     0.02277508       -49.3033138912  6.87E-04
   485 Broy./Diag. 0.10E+00    5.4     0.03792037       -49.2963928732  6.92E-03
   486 Broy./Diag. 0.10E+00    5.4     0.03321259       -49.2898726577  6.52E-03
   487 Broy./Diag. 0.10E+00    5.4     0.04717441       -49.2872569372  2.62E-03
   488 Broy./Diag. 0.10E+00    5.5     0.05233121       -49.2817169998  5.54E-03
   489 Broy./Diag. 0.10E+00    5.4     0.05034011       -49.2636878632  1.80E-02
   490 Broy./Diag. 0.10E+00    5.4     0.06042524       -49.2401328115  2.36E-02
   491 Broy./Diag. 0.10E+00    5.5     0.06651602       -49.2165722513  2.36E-02
   492 Broy./Diag. 0.10E+00    5.4     0.05733041       -49.1890310403  2.75E-02
   493 Broy./Diag. 0.10E+00    5.4     0.05243774       -49.1756832812  1.33E-02
   494 Broy./Diag. 0.10E+00    5.4     0.03941728       -49.1538281217  2.19E-02
   495 Broy./Diag. 0.10E+00    5.4     0.06405990       -49.1656286177 -1.18E-02
   496 Broy./Diag. 0.10E+00    5.4     0.03128689       -49.1686160804 -2.99E-03
   497 Broy./Diag. 0.10E+00    5.4     0.01073836       -49.1640156241  4.60E-03
   498 Broy./Diag. 0.10E+00    5.4     0.00873672       -49.1665238723 -2.51E-03
   499 Broy./Diag. 0.10E+00    5.4     0.10146384       -49.2642530630 -9.77E-02
   500 Broy./Diag. 0.10E+00    5.4     0.03077278       -49.1994446779  6.48E-02

  Leaving inner SCF loop after reaching   500 steps.


  Electronic density on regular grids:         -6.5130524923        3.4869475077
  Core density on regular grids:               10.0000000000        0.0000000000
  Hard and soft densities (Lebedev):          -21.2454103017      -17.7979847270
  Total Rho_soft + Rho1_hard - Rho1_soft       -9.9604780670
  Total charge density (r-space):               0.0395219330
  Total Rho_soft + Rho0_soft (g-space):         0.0395218813

  Overlap energy of the core charge distribution:               0.00000845868521
  Self energy of the core charge distribution:                -32.50467561761386
  Core Hamiltonian energy:                                    -13.21893781901758
  Hartree energy:                                              11.31107049405750
  Exchange-correlation energy:                                 -1.66944313510727
  Hartree-Fock Exchange energy:                                -1.91412495017925

  GAPW| Exc from hard and soft atomic rho1:                    -4.27466061219694
  GAPW| local Eh = 1 center integrals:                         -6.92868149654466

  Total energy:                                               -49.19944467791686

 *******************************************************************************
 *   ___                                                                       *
 *  /   \                                                                      *
 * [ABORT]                                                                     *
 *  \___/     SCF run NOT converged. To continue the calculation regardless,   *
 *    |             please set the keyword IGNORE_CONVERGENCE_FAILURE.         *
 *  O/|                                                                        *
 * /| |                                                                        *
 * / \                                                            qs_scf.F:611 *
 *******************************************************************************


 ===== Routine Calling Stack ===== 

            3 scf_env_do_scf
            2 qs_energies
            1 CP2K

 *******************************************************************************
 *   ___                                                                       *
 *  /   \                                                                      *
 * [ABORT]                                                                     *
 *  \___/     SCF run NOT converged. To continue the calculation regardless,   *
 *    |             please set the keyword IGNORE_CONVERGENCE_FAILURE.         *
 *  O/|                                                                        *
 * /| |                                                                        *
 * / \                                                            qs_scf.F:611 *
 *******************************************************************************


 ===== Routine Calling Stack ===== 

            3 scf_env_do_scf
            2 qs_energies
            1 CP2K

 *******************************************************************************
 *   ___                                                                       *
 *  /   \                                                                      *
 * [ABORT]                                                                     *
 *  \___/     SCF run NOT converged. To continue the calculation regardless,   *
 *    |             please set the keyword IGNORE_CONVERGENCE_FAILURE.         *
 *  O/|                                                                        *
 * /| |                                                                        *
 * / \                                                            qs_scf.F:611 *
 *******************************************************************************


 ===== Routine Calling Stack ===== 

            3 scf_env_do_scf
            2 qs_energies
            1 CP2K

 *******************************************************************************
 *   ___                                                                       *
 *  /   \                                                                      *
 * [ABORT]                                                                     *
 *  \___/     SCF run NOT converged. To continue the calculation regardless,   *
 *    |             please set the keyword IGNORE_CONVERGENCE_FAILURE.         *
 *  O/|                                                                        *
 * /| |                                                                        *
 * / \                                                            qs_scf.F:611 *
 *******************************************************************************


 ===== Routine Calling Stack ===== 

            3 scf_env_do_scf
            2 qs_energies
            1 CP2K

 *******************************************************************************
 *   ___                                                                       *
 *  /   \                                                                      *
 * [ABORT]                                                                     *
 *  \___/     SCF run NOT converged. To continue the calculation regardless,   *
 *    |             please set the keyword IGNORE_CONVERGENCE_FAILURE.         *
 *  O/|                                                                        *
 * /| |                                                                        *
 * / \                                                            qs_scf.F:611 *
 *******************************************************************************


 ===== Routine Calling Stack ===== 

            3 scf_env_do_scf
            2 qs_energies
            1 CP2K

 *******************************************************************************
 *   ___                                                                       *
 *  /   \                                                                      *
 * [ABORT]                                                                     *
 *  \___/     SCF run NOT converged. To continue the calculation regardless,   *
 *    |             please set the keyword IGNORE_CONVERGENCE_FAILURE.         *
 *  O/|                                                                        *
 * /| |                                                                        *
 * / \                                                            qs_scf.F:611 *
 *******************************************************************************


 ===== Routine Calling Stack ===== 

            3 scf_env_do_scf
            2 qs_energies
            1 CP2K

 *******************************************************************************
 *   ___                                                                       *
 *  /   \                                                                      *
 * [ABORT]                                                                     *
 *  \___/     SCF run NOT converged. To continue the calculation regardless,   *
 *    |             please set the keyword IGNORE_CONVERGENCE_FAILURE.         *
 *  O/|                                                                        *
 * /| |                                                                        *
 * / \                                                            qs_scf.F:611 *
 *******************************************************************************


 ===== Routine Calling Stack ===== 

            3 scf_env_do_scf
            2 qs_energies
            1 CP2K

 *******************************************************************************
 *   ___                                                                       *
 *  /   \                                                                      *
 * [ABORT]                                                                     *
 *  \___/     SCF run NOT converged. To continue the calculation regardless,   *
 *    |             please set the keyword IGNORE_CONVERGENCE_FAILURE.         *
 *  O/|                                                                        *
 * /| |                                                                        *
 * / \                                                            qs_scf.F:611 *
 *******************************************************************************


 ===== Routine Calling Stack ===== 

            3 scf_env_do_scf
            2 qs_energies
            1 CP2K

 *******************************************************************************
 *   ___                                                                       *
 *  /   \                                                                      *
 * [ABORT]                                                                     *
 *  \___/     SCF run NOT converged. To continue the calculation regardless,   *
 *    |             please set the keyword IGNORE_CONVERGENCE_FAILURE.         *
 *  O/|                                                                        *
 * /| |                                                                        *
 * / \                                                            qs_scf.F:611 *
 *******************************************************************************


 ===== Routine Calling Stack ===== 

            3 scf_env_do_scf
            2 qs_energies
            1 CP2K

 *******************************************************************************
 *   ___                                                                       *
 *  /   \                                                                      *
 * [ABORT]                                                                     *
 *  \___/     SCF run NOT converged. To continue the calculation regardless,   *
 *    |             please set the keyword IGNORE_CONVERGENCE_FAILURE.         *
 *  O/|                                                                        *
 * /| |                                                                        *
 * / \                                                            qs_scf.F:611 *
 *******************************************************************************


 ===== Routine Calling Stack ===== 

            3 scf_env_do_scf
            2 qs_energies
            1 CP2K

 *******************************************************************************
 *   ___                                                                       *
 *  /   \                                                                      *
 * [ABORT]                                                                     *
 *  \___/     SCF run NOT converged. To continue the calculation regardless,   *
 *    |             please set the keyword IGNORE_CONVERGENCE_FAILURE.         *
 *  O/|                                                                        *
 * /| |                                                                        *
 * / \                                                            qs_scf.F:611 *
 *******************************************************************************


 ===== Routine Calling Stack ===== 

            3 scf_env_do_scf
            2 qs_energies
            1 CP2K

 *******************************************************************************
 *   ___                                                                       *
 *  /   \                                                                      *
 * [ABORT]                                                                     *
 *  \___/     SCF run NOT converged. To continue the calculation regardless,   *
 *    |             please set the keyword IGNORE_CONVERGENCE_FAILURE.         *
 *  O/|                                                                        *
 * /| |                                                                        *
 * / \                                                            qs_scf.F:611 *
 *******************************************************************************


 ===== Routine Calling Stack ===== 

            3 scf_env_do_scf
            2 qs_energies
            1 CP2K

 *******************************************************************************
 *   ___                                                                       *
 *  /   \                                                                      *
 * [ABORT]                                                                     *
 *  \___/     SCF run NOT converged. To continue the calculation regardless,   *
 *    |             please set the keyword IGNORE_CONVERGENCE_FAILURE.         *
 *  O/|                                                                        *
 * /| |                                                                        *
 * / \                                                            qs_scf.F:611 *
 *******************************************************************************


 ===== Routine Calling Stack ===== 

            3 scf_env_do_scf
            2 qs_energies
            1 CP2K
