 DBCSR| CPU Multiplication driver                                           BLAS (U)
 DBCSR| Multrec recursion limit                                              512 (U)
 DBCSR| Multiplication stack size                                           1000 (D)
 DBCSR| Maximum elements for images                                    UNLIMITED (U)
 DBCSR| Multiplicative factor virtual images                                   1 (U)
 DBCSR| Use multiplication densification                                       T (D)
 DBCSR| Multiplication size stacks                                             3 (U)
 DBCSR| Use memory pool for CPU allocation                                     F (U)
 DBCSR| Number of 3D layers                                               SINGLE (U)
 DBCSR| Use MPI memory allocation                                              F (U)
 DBCSR| Use RMA algorithm                                                      F (U)
 DBCSR| Use Communication thread                                               T (U)
 DBCSR| Communication thread load                                             75 (D)
 DBCSR| MPI: My process id                                                     0
 DBCSR| MPI: Number of processes                                              24
 DBCSR| OMP: Current number of threads                                         4
 DBCSR| OMP: Max number of threads                                             4
 DBCSR| Split modifier for TAS multiplication algorithm                  1.0E+00 (U)


  **** **** ******  **  PROGRAM STARTED AT               2025-02-26 14:56:40.901
 ***** ** ***  *** **   PROGRAM STARTED ON                          i02r01c05s08
 **    ****   ******    PROGRAM STARTED BY                               di38fab
 ***** **    ** ** **   PROGRAM PROCESS ID                               3462674
  **** **  *******  **  PROGRAM STARTED IN /hppfs/scratch/04/di38fab/05_MOL/W4-1
                                           1/b2/DZVP

 CP2K| version string:                 CP2K version 2025.1 (Development Version)
 CP2K| source code revision number:                                  git:47877ba
 CP2K| cp2kflags: omp libint fftw3 libxc parallel scalapack max_contr=4         
 CP2K| is freely available from                            https://www.cp2k.org/
 CP2K| Program compiled at                          Thu Feb 20 16:00:34 CET 2025
 CP2K| Program compiled on                                               login04
 CP2K| Program compiled for                                        Supermuc-foss
 CP2K| Data directory path          /hppfs/work/pn36zo/di38fab/newcp2k/cp2k/data
 CP2K| Input file name                                                    GW.inp

 GLOBAL| Force Environment number                                              1
 GLOBAL| Basis set file name            /hppfs/scratch/04/di38fab/04_TMD/BASIS_A
 GLOBAL| Potential file name            /hppfs/work/pn36zo/di38fab/cp2k/data/ALL
 GLOBAL| MM Potential file name                                     MM_POTENTIAL
 GLOBAL| Coordinate file name                                      __STD_INPUT__
 GLOBAL| Method name                                                        CP2K
 GLOBAL| Project name                                                       MoS2
 GLOBAL| Run type                                                         ENERGY
 GLOBAL| FFT library                                                       FFTW3
 GLOBAL| Diagonalization library                                       ScaLAPACK
 GLOBAL| DGEMM library                                                      BLAS
 GLOBAL| Orthonormality check for eigenvectors                          DISABLED
 GLOBAL| Matrix multiplication library                                 ScaLAPACK
 GLOBAL| All-to-all communication in single precision                          F
 GLOBAL| FFTs using library dependent lengths                                  F
 GLOBAL| Grid backend                                                       AUTO
 GLOBAL| Global print level                                               MEDIUM
 GLOBAL| MPI I/O enabled                                                       T
 GLOBAL| Total number of message passing processes                            24
 GLOBAL| Number of threads for this process                                    4
 GLOBAL| This output is from process                                           0
 GLOBAL| OpenMP stack size per thread (OMP_STACKSIZE)                    default
 GLOBAL| CPU model name             Intel(R) Xeon(R) Platinum 8174 CPU @ 3.10GHz

 MEMORY| system memory details [Kb]
 MEMORY|                        rank 0           min           max       average
 MEMORY| MemTotal             98436708      98436708      98436708      98436708
 MEMORY| MemFree              84181484      84181484      84243896      84212690
 MEMORY| Buffers                     0             0             0             0
 MEMORY| Cached                2435864       2435504       2435864       2435684
 MEMORY| Slab                  1231144       1218872       1231144       1225008
 MEMORY| SReclaimable           265048        263960        265048        264504
 MEMORY| MemLikelyFree        86882396      86882396      86943360      86912878


 *** Fundamental physical constants (SI units) ***

 *** Literature: B. J. Mohr and B. N. Taylor,
 ***             CODATA recommended values of the fundamental physical
 ***             constants: 2006, Web Version 5.1
 ***             http://physics.nist.gov/constants

 Speed of light in vacuum [m/s]                             2.99792458000000E+08
 Magnetic constant or permeability of vacuum [N/A**2]       1.25663706143592E-06
 Electric constant or permittivity of vacuum [F/m]          8.85418781762039E-12
 Planck constant (h) [J*s]                                  6.62606896000000E-34
 Planck constant (h-bar) [J*s]                              1.05457162825177E-34
 Elementary charge [C]                                      1.60217648700000E-19
 Electron mass [kg]                                         9.10938215000000E-31
 Electron g factor [ ]                                     -2.00231930436220E+00
 Proton mass [kg]                                           1.67262163700000E-27
 Fine-structure constant                                    7.29735253760000E-03
 Rydberg constant [1/m]                                     1.09737315685270E+07
 Avogadro constant [1/mol]                                  6.02214179000000E+23
 Boltzmann constant [J/K]                                   1.38065040000000E-23
 Atomic mass unit [kg]                                      1.66053878200000E-27
 Bohr radius [m]                                            5.29177208590000E-11

 *** Conversion factors ***

 [u] -> [a.u.]                                              1.82288848426455E+03
 [Angstrom] -> [Bohr] = [a.u.]                              1.88972613288564E+00
 [a.u.] = [Bohr] -> [Angstrom]                              5.29177208590000E-01
 [a.u.] -> [s]                                              2.41888432650478E-17
 [a.u.] -> [fs]                                             2.41888432650478E-02
 [a.u.] -> [J]                                              4.35974393937059E-18
 [a.u.] -> [N]                                              8.23872205491840E-08
 [a.u.] -> [K]                                              3.15774647902944E+05
 [a.u.] -> [kJ/mol]                                         2.62549961709828E+03
 [a.u.] -> [kcal/mol]                                       6.27509468713739E+02
 [a.u.] -> [Pa]                                             2.94210107994716E+13
 [a.u.] -> [bar]                                            2.94210107994716E+08
 [a.u.] -> [atm]                                            2.90362800883016E+08
 [a.u.] -> [eV]                                             2.72113838565563E+01
 [a.u.] -> [Hz]                                             6.57968392072181E+15
 [a.u.] -> [1/cm] (wave numbers)                            2.19474631370540E+05
 [a.u./Bohr**2] -> [1/cm]                                   5.14048714338585E+03
 

 CELL_TOP| Volume [angstrom^3]:                                     27000.000000
 CELL_TOP| Vector a [angstrom    30.000     0.000     0.000   |a| =    30.000000
 CELL_TOP| Vector b [angstrom     0.000    30.000     0.000   |b| =    30.000000
 CELL_TOP| Vector c [angstrom     0.000     0.000    30.000   |c| =    30.000000
 CELL_TOP| Angle (b,c), alpha [degree]:                                90.000000
 CELL_TOP| Angle (a,c), beta  [degree]:                                90.000000
 CELL_TOP| Angle (a,b), gamma [degree]:                                90.000000
 CELL_TOP| Numerically orthorhombic:                                         YES
 CELL_TOP| Periodicity                                                      NONE

 GENERATE|  Preliminary Number of Bonds generated:                             0
 GENERATE|  Achieved consistency in connectivity generation.

 CELL| Volume [angstrom^3]:                                         27000.000000
 CELL| Vector a [angstrom]:      30.000     0.000     0.000   |a| =    30.000000
 CELL| Vector b [angstrom]:       0.000    30.000     0.000   |b| =    30.000000
 CELL| Vector c [angstrom]:       0.000     0.000    30.000   |c| =    30.000000
 CELL| Angle (b,c), alpha [degree]:                                    90.000000
 CELL| Angle (a,c), beta  [degree]:                                    90.000000
 CELL| Angle (a,b), gamma [degree]:                                    90.000000
 CELL| Numerically orthorhombic:                                             YES
 CELL| Periodicity                                                          NONE

 CELL_REF| Volume [angstrom^3]:                                     27000.000000
 CELL_REF| Vector a [angstrom    30.000     0.000     0.000   |a| =    30.000000
 CELL_REF| Vector b [angstrom     0.000    30.000     0.000   |b| =    30.000000
 CELL_REF| Vector c [angstrom     0.000     0.000    30.000   |c| =    30.000000
 CELL_REF| Angle (b,c), alpha [degree]:                                90.000000
 CELL_REF| Angle (a,c), beta  [degree]:                                90.000000
 CELL_REF| Angle (a,b), gamma [degree]:                                90.000000
 CELL_REF| Numerically orthorhombic:                                         YES
 CELL_REF| Periodicity                                                      NONE

 *******************************************************************************
                                    Kpoints
 *******************************************************************************
 BRILLOUIN|                                              Gamma-point calculation
 BRILLOUIN| K-Point point group symmetrization                               OFF
 BRILLOUIN| Wavefunction type                                            COMPLEX
 *******************************************************************************

 *******************************************************************************
 *******************************************************************************
 **                                                                           **
 **     #####                         ##              ##                      **
 **    ##   ##            ##          ##              ##                      **
 **   ##     ##                       ##            ######                    **
 **   ##     ##  ##   ##  ##   #####  ##  ##   ####   ##    #####    #####    **
 **   ##     ##  ##   ##  ##  ##      ## ##   ##      ##   ##   ##  ##   ##   **
 **   ##  ## ##  ##   ##  ##  ##      ####     ###    ##   ######   ######    **
 **    ##  ###   ##   ##  ##  ##      ## ##      ##   ##   ##       ##        **
 **     #######   #####   ##   #####  ##  ##  ####    ##    #####   ##        **
 **           ##                                                    ##        **
 **                                                                           **
 **                                                ... make the atoms dance   **
 **                                                                           **
 **            Copyright (C) by CP2K developers group (2000-2025)             **
 **                      J. Chem. Phys. 152, 194103 (2020)                    **
 **                                                                           **
 *******************************************************************************

 DFT| Spin restricted Kohn-Sham (RKS) calculation                            RKS
 DFT| Multiplicity                                                             1
 DFT| Number of spin states                                                    1
 DFT| Charge                                                                   0
 DFT| Self-interaction correction (SIC)                                       NO
 DFT| Cutoffs: density                                              1.000000E-10
 DFT|          gradient                                             1.000000E-10
 DFT|          tau                                                  1.000000E-10
 DFT|          cutoff_smoothing_range                               0.000000E+00
 DFT| XC density smoothing                                                  NONE
 DFT| XC derivatives                                                          PW

 FUNCTIONAL| PBE:
 FUNCTIONAL| J.P.Perdew, K.Burke, M.Ernzerhof, Phys. Rev. Letter, vol. 77, n 18,
 FUNCTIONAL|  pp. 3865-3868, (1996) {spin unpolarized}                          


 QS| Method:                                                                GAPW
 QS| Density plane wave grid type                        NON-SPHERICAL FULLSPACE
 QS| Number of grid levels:                                                    4
 QS| Density cutoff [a.u.]:                                                250.0
 QS| Multi grid cutoff [a.u.]: 1) grid level                               250.0
 QS|                           2) grid level                                83.3
 QS|                           3) grid level                                27.8
 QS|                           4) grid level                                 9.3
 QS| Grid level progression factor:                                          3.0
 QS| Relative density cutoff [a.u.]:                                        50.0
 QS| Interaction thresholds: eps_pgf_orb:                                1.0E-12
 QS|                         eps_filter_matrix:                          0.0E+00
 QS|                         eps_core_charge:                            1.0E-14
 QS|                         eps_rho_gspace:                             1.0E-12
 QS|                         eps_rho_rspace:                             1.0E-12
 QS|                         eps_gvg_rspace:                             1.0E-06
 QS|                         eps_ppl:                                    1.0E-02
 QS|                         eps_ppnl:                                   1.0E-08
 QS| GAPW|      One center basis from orbital basis primitives
 QS| GAPW|                   eps_fit:                                    1.0E-04
 QS| GAPW|                   eps_iso:                                    1.0E-12
 QS| GAPW|                   eps_svd:                                    1.0E-08
 QS| GAPW|                   eps_cpc:                                    1.0E-12
 QS| GAPW|   atom-r-grid: quadrature:                                     GC_LOG
 QS| GAPW|      atom-s-grid:  max l :                                          6
 QS| GAPW|      max_l_rho0 :                                                   2


 ATOMIC KIND INFORMATION

  1. Atomic kind: B                                     Number of atoms:       2

     Orbital Basis Set                                        aug-DZVP-MOLOPT-ae

       Number of orbital shell sets:                                           2
       Number of orbital shells:                                              10
       Number of primitive Cartesian functions:                               12
       Number of Cartesian basis functions:                                   35
       Number of spherical basis functions:                                   30
       Norm type:                                                              2

       Normalised Cartesian orbitals:

                        Set   Shell   Orbital            Exponent    Coefficient

                          1       1    2s                0.082134       0.085473
                                                         0.140000       0.049675
                                                         0.279625      -0.030750
                                                         0.881274       0.022030
                                                         4.510873       0.000000

                          1       2    3px               0.082134      -0.004879
                                                         0.140000       0.000000
                                                         0.279625      -0.151722
                                                         0.881274      -0.583957
                                                         4.510873      -1.036243
                          1       2    3py               0.082134      -0.004879
                                                         0.140000       0.000000
                                                         0.279625      -0.151722
                                                         0.881274      -0.583957
                                                         4.510873      -1.036243
                          1       2    3pz               0.082134      -0.004879
                                                         0.140000       0.000000
                                                         0.279625      -0.151722
                                                         0.881274      -0.583957
                                                         4.510873      -1.036243

                          1       3    4px               0.082134       0.052233
                                                         0.140000       0.000000
                                                         0.279625       0.094300
                                                         0.881274      -0.581323
                                                         4.510873      -0.510604
                          1       3    4py               0.082134       0.052233
                                                         0.140000       0.000000
                                                         0.279625       0.094300
                                                         0.881274      -0.581323
                                                         4.510873      -0.510604
                          1       3    4pz               0.082134       0.052233
                                                         0.140000       0.000000
                                                         0.279625       0.094300
                                                         0.881274      -0.581323
                                                         4.510873      -0.510604

                          1       4    5px               0.082134       0.024659
                                                         0.140000       0.076570
                                                         0.279625      -0.053289
                                                         0.881274       0.410720
                                                         4.510873       0.000000
                          1       4    5py               0.082134       0.024659
                                                         0.140000       0.076570
                                                         0.279625      -0.053289
                                                         0.881274       0.410720
                                                         4.510873       0.000000
                          1       4    5pz               0.082134       0.024659
                                                         0.140000       0.076570
                                                         0.279625      -0.053289
                                                         0.881274       0.410720
                                                         4.510873       0.000000

                          1       5    4dx2              0.082134       0.000404
                                                         0.140000       0.000000
                                                         0.279625       0.111576
                                                         0.881274       0.641739
                                                         4.510873      -0.272354
                          1       5    4dxy              0.082134       0.000700
                                                         0.140000       0.000000
                                                         0.279625       0.193255
                                                         0.881274       1.111524
                                                         4.510873      -0.471731
                          1       5    4dxz              0.082134       0.000700
                                                         0.140000       0.000000
                                                         0.279625       0.193255
                                                         0.881274       1.111524
                                                         4.510873      -0.471731
                          1       5    4dy2              0.082134       0.000404
                                                         0.140000       0.000000
                                                         0.279625       0.111576
                                                         0.881274       0.641739
                                                         4.510873      -0.272354
                          1       5    4dyz              0.082134       0.000700
                                                         0.140000       0.000000
                                                         0.279625       0.193255
                                                         0.881274       1.111524
                                                         4.510873      -0.471731
                          1       5    4dz2              0.082134       0.000404
                                                         0.140000       0.000000
                                                         0.279625       0.111576
                                                         0.881274       0.641739
                                                         4.510873      -0.272354

                          1       6    5dx2              0.082134       0.036596
                                                         0.140000      -0.054919
                                                         0.279625      -0.008802
                                                         0.881274      -0.232953
                                                         4.510873       0.000000
                          1       6    5dxy              0.082134       0.063387
                                                         0.140000      -0.095122
                                                         0.279625      -0.015246
                                                         0.881274      -0.403486
                                                         4.510873       0.000000
                          1       6    5dxz              0.082134       0.063387
                                                         0.140000      -0.095122
                                                         0.279625      -0.015246
                                                         0.881274      -0.403486
                                                         4.510873       0.000000
                          1       6    5dy2              0.082134       0.036596
                                                         0.140000      -0.054919
                                                         0.279625      -0.008802
                                                         0.881274      -0.232953
                                                         4.510873       0.000000
                          1       6    5dyz              0.082134       0.063387
                                                         0.140000      -0.095122
                                                         0.279625      -0.015246
                                                         0.881274      -0.403486
                                                         4.510873       0.000000
                          1       6    5dz2              0.082134       0.036596
                                                         0.140000      -0.054919
                                                         0.279625      -0.008802
                                                         0.881274      -0.232953
                                                         4.510873       0.000000

                          1       7    5fx3              0.082134      -0.000468
                                                         0.140000       0.012301
                                                         0.279625       0.033988
                                                         0.881274       0.068820
                                                         4.510873       0.000000
                          1       7    5fx2y             0.082134      -0.001048
                                                         0.140000       0.027506
                                                         0.279625       0.075998
                                                         0.881274       0.153886
                                                         4.510873       0.000000
                          1       7    5fx2z             0.082134      -0.001048
                                                         0.140000       0.027506
                                                         0.279625       0.075998
                                                         0.881274       0.153886
                                                         4.510873       0.000000
                          1       7    5fxy2             0.082134      -0.001048
                                                         0.140000       0.027506
                                                         0.279625       0.075998
                                                         0.881274       0.153886
                                                         4.510873       0.000000
                          1       7    5fxyz             0.082134      -0.001814
                                                         0.140000       0.047643
                                                         0.279625       0.131633
                                                         0.881274       0.266539
                                                         4.510873       0.000000
                          1       7    5fxz2             0.082134      -0.001048
                                                         0.140000       0.027506
                                                         0.279625       0.075998
                                                         0.881274       0.153886
                                                         4.510873       0.000000
                          1       7    5fy3              0.082134      -0.000468
                                                         0.140000       0.012301
                                                         0.279625       0.033988
                                                         0.881274       0.068820
                                                         4.510873       0.000000
                          1       7    5fy2z             0.082134      -0.001048
                                                         0.140000       0.027506
                                                         0.279625       0.075998
                                                         0.881274       0.153886
                                                         4.510873       0.000000
                          1       7    5fyz2             0.082134      -0.001048
                                                         0.140000       0.027506
                                                         0.279625       0.075998
                                                         0.881274       0.153886
                                                         4.510873       0.000000
                          1       7    5fz3              0.082134      -0.000468
                                                         0.140000       0.012301
                                                         0.279625       0.033988
                                                         0.881274       0.068820
                                                         4.510873       0.000000

                          2       1    1s              839.324562      -0.573042
                                                       126.174643      -1.097170
                                                        28.339532      -1.625259
                                                         7.329111      -1.470436
                                                         2.208031      -0.468381
                                                         0.410209      -0.026981
                                                         0.151694      -0.023850

                          2       2    2s              839.324562       0.050684
                                                       126.174643      -0.115654
                                                        28.339532      -0.168560
                                                         7.329111      -0.289389
                                                         2.208031      -0.246292
                                                         0.410209       0.238157
                                                         0.151694       0.084355

                          2       3    3s              839.324562      -2.590681
                                                       126.174643       0.127370
                                                        28.339532      -1.260776
                                                         7.329111      -0.567183
                                                         2.208031      -0.073452
                                                         0.410209      -0.458063
                                                         0.151694       0.280188

     RI Auxiliary Basis Set             RI_aug-DZVP-MOLOPT-ae_N_RI_035_s_p_d_f_g

       Number of orbital shell sets:                                          13
       Number of orbital shells:                                              13
       Number of primitive Cartesian functions:                               13
       Number of Cartesian basis functions:                                   40
       Number of spherical basis functions:                                   35
       Norm type:                                                              2

       Normalised Cartesian orbitals:

                        Set   Shell   Orbital            Exponent    Coefficient

                          1       1    1s                0.155297       0.176312

                          2       1   11dx2              0.191101       0.090912
                          2       1   11dxy              0.191101       0.157464
                          2       1   11dxz              0.191101       0.157464
                          2       1   11dy2              0.191101       0.090912
                          2       1   11dyz              0.191101       0.157464
                          2       1   11dz2              0.191101       0.090912

                          3       1    7px               0.280108       0.290467
                          3       1    7py               0.280108       0.290467
                          3       1    7pz               0.280108       0.290467

                          4       1    2s                0.348203       0.323061

                          5       1   13fx3              0.401700       0.189118
                          5       1   13fx2y             0.401700       0.422882
                          5       1   13fx2z             0.401700       0.422882
                          5       1   13fxy2             0.401700       0.422882
                          5       1   13fxyz             0.401700       0.732452
                          5       1   13fxz2             0.401700       0.422882
                          5       1   13fy3              0.401700       0.189118
                          5       1   13fy2z             0.401700       0.422882
                          5       1   13fyz2             0.401700       0.422882
                          5       1   13fz3              0.401700       0.189118

                          6       1    8px               0.444336       0.517106
                          6       1    8py               0.444336       0.517106
                          6       1    8pz               0.444336       0.517106

                          7       1   12dx2              0.761687       1.022158
                          7       1   12dxy              0.761687       1.770430
                          7       1   12dxz              0.761687       1.770430
                          7       1   12dy2              0.761687       1.022158
                          7       1   12dyz              0.761687       1.770430
                          7       1   12dz2              0.761687       1.022158

                          8       1    3s                1.114597       0.773123

                          9       1    9px               1.400889       2.172425
                          9       1    9py               1.400889       2.172425
                          9       1    9pz               1.400889       2.172425

                         10       1    4s                3.952925       1.998016

                         11       1   10px               6.658811      15.247055
                         11       1   10py               6.658811      15.247055
                         11       1   10pz               6.658811      15.247055

                         12       1    5s               13.787097       5.099349

                         13       1    6s               47.491635      12.893563

       Atomic covalent radius [Angstrom]:                                  0.820

       Atomic van der Waals radius [Angstrom]:                             1.920

     The atoms of this atomic kind are PAW atoms (GAPW):
       Hard Gaussian function radius:                                      1.512
       Rho0 radius:                                                        1.512
       Maximum GTO radius used for PAW projector construction:            24.566

     GAPW Soft Basis Set                                 aug-DZVP-MOLOPT-ae_soft

       Number of orbital shell sets:                                           2
       Number of orbital shells:                                              10
       Number of primitive Cartesian functions:                                8
       Number of Cartesian basis functions:                                   35
       Number of spherical basis functions:                                   30
       Norm type:                                                              2

       Normalised Cartesian orbitals:

                        Set   Shell   Orbital            Exponent    Coefficient

                          1       1    2s                0.082134       0.085473
                                                         0.140000       0.049675
                                                         0.279625      -0.030750
                                                         0.881274       0.022030
                                                         4.510873       0.000000

                          1       2    3px               0.082134      -0.004879
                                                         0.140000       0.000000
                                                         0.279625      -0.151722
                                                         0.881274      -0.583957
                                                         4.510873       0.000000
                          1       2    3py               0.082134      -0.004879
                                                         0.140000       0.000000
                                                         0.279625      -0.151722
                                                         0.881274      -0.583957
                                                         4.510873       0.000000
                          1       2    3pz               0.082134      -0.004879
                                                         0.140000       0.000000
                                                         0.279625      -0.151722
                                                         0.881274      -0.583957
                                                         4.510873       0.000000

                          1       3    4px               0.082134       0.052233
                                                         0.140000       0.000000
                                                         0.279625       0.094300
                                                         0.881274      -0.581323
                                                         4.510873       0.000000
                          1       3    4py               0.082134       0.052233
                                                         0.140000       0.000000
                                                         0.279625       0.094300
                                                         0.881274      -0.581323
                                                         4.510873       0.000000
                          1       3    4pz               0.082134       0.052233
                                                         0.140000       0.000000
                                                         0.279625       0.094300
                                                         0.881274      -0.581323
                                                         4.510873       0.000000

                          1       4    5px               0.082134       0.024659
                                                         0.140000       0.076570
                                                         0.279625      -0.053289
                                                         0.881274       0.410720
                                                         4.510873       0.000000
                          1       4    5py               0.082134       0.024659
                                                         0.140000       0.076570
                                                         0.279625      -0.053289
                                                         0.881274       0.410720
                                                         4.510873       0.000000
                          1       4    5pz               0.082134       0.024659
                                                         0.140000       0.076570
                                                         0.279625      -0.053289
                                                         0.881274       0.410720
                                                         4.510873       0.000000

                          1       5    4dx2              0.082134       0.000404
                                                         0.140000       0.000000
                                                         0.279625       0.111576
                                                         0.881274       0.641739
                                                         4.510873       0.000000
                          1       5    4dxy              0.082134       0.000700
                                                         0.140000       0.000000
                                                         0.279625       0.193255
                                                         0.881274       1.111524
                                                         4.510873       0.000000
                          1       5    4dxz              0.082134       0.000700
                                                         0.140000       0.000000
                                                         0.279625       0.193255
                                                         0.881274       1.111524
                                                         4.510873       0.000000
                          1       5    4dy2              0.082134       0.000404
                                                         0.140000       0.000000
                                                         0.279625       0.111576
                                                         0.881274       0.641739
                                                         4.510873       0.000000
                          1       5    4dyz              0.082134       0.000700
                                                         0.140000       0.000000
                                                         0.279625       0.193255
                                                         0.881274       1.111524
                                                         4.510873       0.000000
                          1       5    4dz2              0.082134       0.000404
                                                         0.140000       0.000000
                                                         0.279625       0.111576
                                                         0.881274       0.641739
                                                         4.510873       0.000000

                          1       6    5dx2              0.082134       0.036596
                                                         0.140000      -0.054919
                                                         0.279625      -0.008802
                                                         0.881274      -0.232953
                                                         4.510873       0.000000
                          1       6    5dxy              0.082134       0.063387
                                                         0.140000      -0.095122
                                                         0.279625      -0.015246
                                                         0.881274      -0.403486
                                                         4.510873       0.000000
                          1       6    5dxz              0.082134       0.063387
                                                         0.140000      -0.095122
                                                         0.279625      -0.015246
                                                         0.881274      -0.403486
                                                         4.510873       0.000000
                          1       6    5dy2              0.082134       0.036596
                                                         0.140000      -0.054919
                                                         0.279625      -0.008802
                                                         0.881274      -0.232953
                                                         4.510873       0.000000
                          1       6    5dyz              0.082134       0.063387
                                                         0.140000      -0.095122
                                                         0.279625      -0.015246
                                                         0.881274      -0.403486
                                                         4.510873       0.000000
                          1       6    5dz2              0.082134       0.036596
                                                         0.140000      -0.054919
                                                         0.279625      -0.008802
                                                         0.881274      -0.232953
                                                         4.510873       0.000000

                          1       7    5fx3              0.082134      -0.000468
                                                         0.140000       0.012301
                                                         0.279625       0.033988
                                                         0.881274       0.068820
                                                         4.510873       0.000000
                          1       7    5fx2y             0.082134      -0.001048
                                                         0.140000       0.027506
                                                         0.279625       0.075998
                                                         0.881274       0.153886
                                                         4.510873       0.000000
                          1       7    5fx2z             0.082134      -0.001048
                                                         0.140000       0.027506
                                                         0.279625       0.075998
                                                         0.881274       0.153886
                                                         4.510873       0.000000
                          1       7    5fxy2             0.082134      -0.001048
                                                         0.140000       0.027506
                                                         0.279625       0.075998
                                                         0.881274       0.153886
                                                         4.510873       0.000000
                          1       7    5fxyz             0.082134      -0.001814
                                                         0.140000       0.047643
                                                         0.279625       0.131633
                                                         0.881274       0.266539
                                                         4.510873       0.000000
                          1       7    5fxz2             0.082134      -0.001048
                                                         0.140000       0.027506
                                                         0.279625       0.075998
                                                         0.881274       0.153886
                                                         4.510873       0.000000
                          1       7    5fy3              0.082134      -0.000468
                                                         0.140000       0.012301
                                                         0.279625       0.033988
                                                         0.881274       0.068820
                                                         4.510873       0.000000
                          1       7    5fy2z             0.082134      -0.001048
                                                         0.140000       0.027506
                                                         0.279625       0.075998
                                                         0.881274       0.153886
                                                         4.510873       0.000000
                          1       7    5fyz2             0.082134      -0.001048
                                                         0.140000       0.027506
                                                         0.279625       0.075998
                                                         0.881274       0.153886
                                                         4.510873       0.000000
                          1       7    5fz3              0.082134      -0.000468
                                                         0.140000       0.012301
                                                         0.279625       0.033988
                                                         0.881274       0.068820
                                                         4.510873       0.000000

                          2       1    1s                2.208031      -0.468381
                                                         0.410209      -0.026981
                                                         0.151694      -0.023850

                          2       2    2s                2.208031      -0.246292
                                                         0.410209       0.238157
                                                         0.151694       0.084355

                          2       3    3s                2.208031      -0.073452
                                                         0.410209      -0.458063
                                                         0.151694       0.280188

     AE Potential information for                                            ALL

       Description:                                       All-electron potential
                                          Krack, Parrinello, PCCP 2, 2105 (2000)

       Gaussian exponent of the core charge distribution:               2.655410
       Electronic configuration (s p d ...):                           4   1   0


 MOLECULE KIND INFORMATION


 All atoms are their own molecule, skipping detailed information


 TOTAL NUMBERS AND MAXIMUM NUMBERS

  Total number of            - Atomic kinds:                                   1
                             - Atoms:                                          2
                             - Shell sets:                                     4
                             - Shells:                                        20
                             - Primitive Cartesian functions:                 24
                             - Cartesian basis functions:                     70
                             - Spherical basis functions:                     60

  Maximum angular momentum of the orbital basis functions:                     3


 MODULE QUICKSTEP: ATOMIC COORDINATES IN ANGSTROM

   Atom Kind Element         X             Y             Z       Z(eff)     Mass
      1    1 B     5     15.793777     15.000000     15.000000   5.0000  10.8110
      2    1 B     5     14.206223     15.000000     15.000000   5.0000  10.8110



 SCF PARAMETERS         Density guess:                                    ATOMIC
                        --------------------------------------------------------
                        max_scf:                                             500
                        max_scf_history:                                       0
                        max_diis:                                              4
                        --------------------------------------------------------
                        eps_scf:                                        1.00E-09
                        eps_scf_history:                                0.00E+00
                        eps_diis:                                       1.00E-01
                        eps_eigval:                                     1.00E-05
                        --------------------------------------------------------
                        level_shift [a.u.]:                             0.000000
                        added MOs                                        55    0
                        --------------------------------------------------------
                        Mixing method:                            BROYDEN_MIXING
                                                charge density mixing in g-space
                        --------------------------------------------------------
                        No outer SCF

 PW_GRID| Information for grid number                                          1
 PW_GRID| Grid distributed over                                    24 processors
 PW_GRID| Real space group dimensions                                    24    1
 PW_GRID| the grid is blocked:                                                NO
 PW_GRID| Cutoff [a.u.]                                                    250.0
 PW_GRID| spherical cutoff:                                                   NO
 PW_GRID|   Bounds   1           -202     202                Points:         405
 PW_GRID|   Bounds   2           -202     202                Points:         405
 PW_GRID|   Bounds   3           -202     202                Points:         405
 PW_GRID| Volume element (a.u.^3)  0.2743E-02     Volume (a.u.^3)    182205.0337
 PW_GRID| Grid span                                                    FULLSPACE
 PW_GRID|   Distribution                         Average         Max         Min
 PW_GRID|   G-Vectors                          2767921.9     2768175     2767770
 PW_GRID|   G-Rays                                6834.4        6835        6834
 PW_GRID|   Real Space Points                  2767921.9     2788425     2624400

 PW_GRID| Information for grid number                                          2
 PW_GRID| Number of the reference grid                                         1
 PW_GRID| Grid distributed over                                    24 processors
 PW_GRID| Real space group dimensions                                    24    1
 PW_GRID| the grid is blocked:                                                NO
 PW_GRID| Cutoff [a.u.]                                                     83.3
 PW_GRID| spherical cutoff:                                                   NO
 PW_GRID|   Bounds   1           -120     119                Points:         240
 PW_GRID|   Bounds   2           -120     119                Points:         240
 PW_GRID|   Bounds   3           -120     119                Points:         240
 PW_GRID| Volume element (a.u.^3)  0.1318E-01     Volume (a.u.^3)    182205.0337
 PW_GRID| Grid span                                                    FULLSPACE
 PW_GRID|   Distribution                         Average         Max         Min
 PW_GRID|   G-Vectors                           576000.0      576240      575760
 PW_GRID|   G-Rays                                2400.0        2401        2399
 PW_GRID|   Real Space Points                   576000.0      576000      576000

 PW_GRID| Information for grid number                                          3
 PW_GRID| Number of the reference grid                                         1
 PW_GRID| Grid distributed over                                    24 processors
 PW_GRID| Real space group dimensions                                    24    1
 PW_GRID| the grid is blocked:                                                NO
 PW_GRID| Cutoff [a.u.]                                                     27.8
 PW_GRID| spherical cutoff:                                                   NO
 PW_GRID|   Bounds   1            -67      67                Points:         135
 PW_GRID|   Bounds   2            -67      67                Points:         135
 PW_GRID|   Bounds   3            -67      67                Points:         135
 PW_GRID| Volume element (a.u.^3)  0.7406E-01     Volume (a.u.^3)    182205.0337
 PW_GRID| Grid span                                                    FULLSPACE
 PW_GRID|   Distribution                         Average         Max         Min
 PW_GRID|   G-Vectors                           102515.6      102735      102330
 PW_GRID|   G-Rays                                 759.4         761         758
 PW_GRID|   Real Space Points                   102515.6      109350       91125

 PW_GRID| Information for grid number                                          4
 PW_GRID| Number of the reference grid                                         1
 PW_GRID| Grid distributed over                                    24 processors
 PW_GRID| Real space group dimensions                                    24    1
 PW_GRID| the grid is blocked:                                                NO
 PW_GRID| Cutoff [a.u.]                                                      9.3
 PW_GRID| spherical cutoff:                                                   NO
 PW_GRID|   Bounds   1            -40      39                Points:          80
 PW_GRID|   Bounds   2            -40      39                Points:          80
 PW_GRID|   Bounds   3            -40      39                Points:          80
 PW_GRID| Volume element (a.u.^3)  0.3559         Volume (a.u.^3)    182205.0337
 PW_GRID| Grid span                                                    FULLSPACE
 PW_GRID|   Distribution                         Average         Max         Min
 PW_GRID|   G-Vectors                            21333.3       21360       21280
 PW_GRID|   G-Rays                                 266.7         267         266
 PW_GRID|   Real Space Points                    21333.3       25600       19200

 POISSON| Solver                                                         WAVELET
 POISSON| Wavelet| Scaling function                                           40
 POISSON| Periodicity                                                       NONE

 RS_GRID| Information for grid number                                          1
 RS_GRID|   Bounds   1           -202     202                Points:         405
 RS_GRID|   Bounds   2           -202     202                Points:         405
 RS_GRID|   Bounds   3           -202     202                Points:         405
 RS_GRID| Real space distribution over                                  4 groups
 RS_GRID| Real space distribution along direction                              2
 RS_GRID| Border size                                                         36
 RS_GRID| Real space distribution over                                  6 groups
 RS_GRID| Real space distribution along direction                              3
 RS_GRID| Border size                                                         36
 RS_GRID|   Distribution                         Average         Max         Min
 RS_GRID|   Planes                                 173.2         174         173
 RS_GRID|   Distribution                         Average         Max         Min
 RS_GRID|   Planes                                 139.5         140         139

 RS_GRID| Information for grid number                                          2
 RS_GRID|   Bounds   1           -120     119                Points:         240
 RS_GRID|   Bounds   2           -120     119                Points:         240
 RS_GRID|   Bounds   3           -120     119                Points:         240
 RS_GRID| Real space distribution over                                  4 groups
 RS_GRID| Real space distribution along direction                              2
 RS_GRID| Border size                                                         39
 RS_GRID| Real space distribution over                                  6 groups
 RS_GRID| Real space distribution along direction                              3
 RS_GRID| Border size                                                         39
 RS_GRID|   Distribution                         Average         Max         Min
 RS_GRID|   Planes                                 138.0         138         138
 RS_GRID|   Distribution                         Average         Max         Min
 RS_GRID|   Planes                                 118.0         118         118

 RS_GRID| Information for grid number                                          3
 RS_GRID|   Bounds   1            -67      67                Points:         135
 RS_GRID|   Bounds   2            -67      67                Points:         135
 RS_GRID|   Bounds   3            -67      67                Points:         135
 RS_GRID| Real space fully replicated
 RS_GRID| Group size                                                           1

 RS_GRID| Information for grid number                                          4
 RS_GRID|   Bounds   1            -40      39                Points:          80
 RS_GRID|   Bounds   2            -40      39                Points:          80
 RS_GRID|   Bounds   3            -40      39                Points:          80
 RS_GRID| Real space fully replicated
 RS_GRID| Group size                                                           1
 
 RI-RPA| using GPW style
 

 Number of electrons:                                                         10
 Number of occupied orbitals:                                                  5
 Number of molecular orbitals:                                                60

 Number of orbital functions:                                                 60
 Number of independent orbital functions:                                     60

 Extrapolation method: initial_guess

 Atomic guess: The first density matrix is obtained in terms of atomic orbitals
               and electronic configurations assigned to each atomic kind

 Guess for atomic kind: B

 Electronic structure
    Total number of core electrons                                          0.00
    Total number of valence electrons                                       5.00
    Total number of electrons                                               5.00
    Multiplicity                                                   not specified
    S      2.00  2.00
    P      1.00


 *******************************************************************************
                  Iteration          Convergence                     Energy [au]
 *******************************************************************************
                          1        0.478540E-01                 -24.326455422583
                          2        0.230834E-01                 -24.328419827544
                          3        0.809223E-03                 -24.329078639833
                          4        0.575629E-06                 -24.329079411789

 Energy components [Hartree]           Total Energy ::          -24.329079411789
                                        Band Energy ::          -13.899544962659
                                     Kinetic Energy ::           24.474308884861
                                   Potential Energy ::          -48.803388296650
                                      Virial (-V/T) ::            1.994066043958
                                        Core Energy ::          -32.336650665617
                                          XC Energy ::           -3.541518263746
                                     Coulomb Energy ::           11.549089517574

 Orbital energies  State     L     Occupation   Energy[a.u.]          Energy[eV]

                       1     0          2.000      -6.542413         -178.028103
                       2     0          2.000      -0.341450           -9.291315

                       1     1          1.000      -0.131820           -3.587017


 Total Electron Density at R=0:                                        66.326855
 Re-scaling the density matrix to get the right number of electrons
                  # Electrons              Trace(P)               Scaling factor
                           10                10.000                        1.000


 SCF WAVEFUNCTION OPTIMIZATION

  Step     Update method      Time    Convergence         Total energy    Change
  ------------------------------------------------------------------------------
     1 NoMix/Diag. 0.10E+00    5.8     0.44621286       -49.4302461668 -4.94E+01
     2 Broy./Diag. 0.10E+00    4.7     0.48119753       -49.0075854497  4.23E-01
     3 Broy./Diag. 0.10E+00    4.8     0.47107657       -49.0758340253 -6.82E-02
     4 Broy./Diag. 0.10E+00    4.9     0.46973134       -49.0808055251 -4.97E-03
     5 Broy./Diag. 0.10E+00    4.8     0.01183678       -49.1136603022 -3.29E-02
     6 Broy./Diag. 0.10E+00    4.9     0.03380678       -49.1642110455 -5.06E-02
     7 Broy./Diag. 0.10E+00    4.9     0.32010442       -49.2182601598 -5.40E-02
     8 Broy./Diag. 0.10E+00    5.1     0.40971940       -49.2161185115  2.14E-03
     9 Broy./Diag. 0.10E+00    5.2     0.42785991       -49.2176775260 -1.56E-03
    10 Broy./Diag. 0.10E+00    5.3     0.44907210       -49.2234496798 -5.77E-03
    11 Broy./Diag. 0.10E+00    5.2     0.43888899       -49.2262132681 -2.76E-03
    12 Broy./Diag. 0.10E+00    5.2     0.38457979       -49.2302915994 -4.08E-03
    13 Broy./Diag. 0.10E+00    5.2     0.37477572       -49.2332036189 -2.91E-03
    14 Broy./Diag. 0.10E+00    5.2     0.35373488       -49.2358170618 -2.61E-03
    15 Broy./Diag. 0.10E+00    5.2     0.35276633       -49.2391920282 -3.37E-03
    16 Broy./Diag. 0.10E+00    5.2     0.34826691       -49.2406991471 -1.51E-03
    17 Broy./Diag. 0.10E+00    5.3     0.36018512       -49.2428962530 -2.20E-03
    18 Broy./Diag. 0.10E+00    5.3     0.36348096       -49.2445157829 -1.62E-03
    19 Broy./Diag. 0.10E+00    5.2     0.37213015       -49.2461589980 -1.64E-03
    20 Broy./Diag. 0.10E+00    5.2     0.41571045       -49.2464993010 -3.40E-04
    21 Broy./Diag. 0.10E+00    5.3     0.41274392       -49.2478631153 -1.36E-03
    22 Broy./Diag. 0.10E+00    5.3     0.43640139       -49.2482784722 -4.15E-04
    23 Broy./Diag. 0.10E+00    5.3     0.43348389       -49.2493383432 -1.06E-03
    24 Broy./Diag. 0.10E+00    5.2     0.44362212       -49.2499749077 -6.37E-04
    25 Broy./Diag. 0.10E+00    5.3     0.44056216       -49.2510650249 -1.09E-03
    26 Broy./Diag. 0.10E+00    5.2     0.44445140       -49.2516858274 -6.21E-04
    27 Broy./Diag. 0.10E+00    5.3     0.44059735       -49.2527420524 -1.06E-03
    28 Broy./Diag. 0.10E+00    5.4     0.44028497       -49.2536646936 -9.23E-04
    29 Broy./Diag. 0.10E+00    5.3     0.43615462       -49.2548371660 -1.17E-03
    30 Broy./Diag. 0.10E+00    5.2     0.43412308       -49.2558543088 -1.02E-03
    31 Broy./Diag. 0.10E+00    5.3     0.43005791       -49.2570068374 -1.15E-03
    32 Broy./Diag. 0.10E+00    5.3     0.42694375       -49.2580137232 -1.01E-03
    33 Broy./Diag. 0.10E+00    5.3     0.42313688       -49.2590855864 -1.07E-03
    34 Broy./Diag. 0.10E+00    5.3     0.41904771       -49.2600587667 -9.73E-04
    35 Broy./Diag. 0.10E+00    5.3     0.41552360       -49.2610303216 -9.72E-04
    36 Broy./Diag. 0.10E+00    5.3     0.40993404       -49.2619023782 -8.72E-04
    37 Broy./Diag. 0.10E+00    5.3     0.40591026       -49.2627454645 -8.43E-04
    38 Broy./Diag. 0.10E+00    5.3     0.39879768       -49.2635371232 -7.92E-04
    39 Broy./Diag. 0.10E+00    5.3     0.39347959       -49.2642816298 -7.45E-04
    40 Broy./Diag. 0.10E+00    5.3     0.38514997       -49.2650025689 -7.21E-04
    41 Broy./Diag. 0.10E+00    5.4     0.37834943       -49.2656778086 -6.75E-04
    42 Broy./Diag. 0.10E+00    5.3     0.36922157       -49.2663340931 -6.56E-04
    43 Broy./Diag. 0.10E+00    5.3     0.36129182       -49.2669584238 -6.24E-04
    44 Broy./Diag. 0.10E+00    5.2     0.35176704       -49.2675585190 -6.00E-04
    45 Broy./Diag. 0.10E+00    5.3     0.34316226       -49.2681441804 -5.86E-04
    46 Broy./Diag. 0.10E+00    5.3     0.33340860       -49.2686932049 -5.49E-04
    47 Broy./Diag. 0.10E+00    5.3     0.32439044       -49.2692436255 -5.50E-04
    48 Broy./Diag. 0.10E+00    5.3     0.32280193       -49.2697481598 -5.05E-04
    49 Broy./Diag. 0.10E+00    5.3     0.33135821       -49.2702652869 -5.17E-04
    50 Broy./Diag. 0.10E+00    5.3     0.34084415       -49.2707308562 -4.66E-04
    51 Broy./Diag. 0.10E+00    5.3     0.34888567       -49.2712168221 -4.86E-04
    52 Broy./Diag. 0.10E+00    5.3     0.35767996       -49.2716477096 -4.31E-04
    53 Broy./Diag. 0.10E+00    5.3     0.36526131       -49.2721046792 -4.57E-04
    54 Broy./Diag. 0.10E+00    5.3     0.37337045       -49.2725043666 -4.00E-04
    55 Broy./Diag. 0.10E+00    5.4     0.38044212       -49.2729348541 -4.30E-04
    56 Broy./Diag. 0.10E+00    5.3     0.38779630       -49.2733060473 -3.71E-04
    57 Broy./Diag. 0.10E+00    5.4     0.39425462       -49.2737123332 -4.06E-04
    58 Broy./Diag. 0.10E+00    5.3     0.40078540       -49.2740574040 -3.45E-04
    59 Broy./Diag. 0.10E+00    5.3     0.40654294       -49.2744413672 -3.84E-04
    60 Broy./Diag. 0.10E+00    5.3     0.41222610       -49.2747624555 -3.21E-04
    61 Broy./Diag. 0.10E+00    5.3     0.41724452       -49.2751255994 -3.63E-04
    62 Broy./Diag. 0.10E+00    5.3     0.42209798       -49.2754246329 -2.99E-04
    63 Broy./Diag. 0.10E+00    5.3     0.42637776       -49.2757681522 -3.44E-04
    64 Broy./Diag. 0.10E+00    5.3     0.43043561       -49.2760468697 -2.79E-04
    65 Broy./Diag. 0.10E+00    5.3     0.43398802       -49.2763718033 -3.25E-04
    66 Broy./Diag. 0.10E+00    5.3     0.43727493       -49.2766317678 -2.60E-04
    67 Broy./Diag. 0.10E+00    5.3     0.44009982       -49.2769390838 -3.07E-04
    68 Broy./Diag. 0.10E+00    5.3     0.44261890       -49.2771817178 -2.43E-04
    69 Broy./Diag. 0.10E+00    5.3     0.44469769       -49.2774723534 -2.91E-04
    70 Broy./Diag. 0.10E+00    5.3     0.44643224       -49.2776989728 -2.27E-04
    71 Broy./Diag. 0.10E+00    5.3     0.44773315       -49.2779738432 -2.75E-04
    72 Broy./Diag. 0.10E+00    5.3     0.44865586       -49.2781856773 -2.12E-04
    73 Broy./Diag. 0.10E+00    5.3     0.44914373       -49.2784456711 -2.60E-04
    74 Broy./Diag. 0.10E+00    5.3     0.44922673       -49.2786438765 -1.98E-04
    75 Broy./Diag. 0.10E+00    5.5     0.44887163       -49.2788898533 -2.46E-04
    76 Broy./Diag. 0.10E+00    5.3     0.44809380       -49.2790755216 -1.86E-04
    77 Broy./Diag. 0.10E+00    5.3     0.44687661       -49.2793083142 -2.33E-04
    78 Broy./Diag. 0.10E+00    5.3     0.44522834       -49.2794824795 -1.74E-04
    79 Broy./Diag. 0.10E+00    5.3     0.44314395       -49.2797028961 -2.20E-04
    80 Broy./Diag. 0.10E+00    5.3     0.44062963       -49.2798665355 -1.64E-04
    81 Broy./Diag. 0.10E+00    5.3     0.43768822       -49.2800753557 -2.09E-04
    82 Broy./Diag. 0.10E+00    5.3     0.43432665       -49.2802293828 -1.54E-04
    83 Broy./Diag. 0.10E+00    5.3     0.43055241       -49.2804273466 -1.98E-04
    84 Broy./Diag. 0.10E+00    5.3     0.42637430       -49.2805725990 -1.45E-04
    85 Broy./Diag. 0.10E+00    5.3     0.42180150       -49.2807603935 -1.88E-04
    86 Broy./Diag. 0.10E+00    5.3     0.41684453       -49.2808976213 -1.37E-04
    87 Broy./Diag. 0.10E+00    5.3     0.41151165       -49.2810758714 -1.78E-04
    88 Broy./Diag. 0.10E+00    5.3     0.40581436       -49.2812057312 -1.30E-04
    89 Broy./Diag. 0.10E+00    5.3     0.39975817       -49.2813749977 -1.69E-04
    90 Broy./Diag. 0.10E+00    5.3     0.39335488       -49.2814980560 -1.23E-04
    91 Broy./Diag. 0.10E+00    5.3     0.38660642       -49.2816588397 -1.61E-04
    92 Broy./Diag. 0.10E+00    5.4     0.37952455       -49.2817755825 -1.17E-04
    93 Broy./Diag. 0.10E+00    5.3     0.37210770       -49.2819283341 -1.53E-04
    94 Broy./Diag. 0.10E+00    5.3     0.36436774       -49.2820391816 -1.11E-04
    95 Broy./Diag. 0.10E+00    5.3     0.35630034       -49.2821843118 -1.45E-04
    96 Broy./Diag. 0.10E+00    5.3     0.34791790       -49.2822896315 -1.05E-04
    97 Broy./Diag. 0.10E+00    5.4     0.33921451       -49.2824275201 -1.38E-04
    98 Broy./Diag. 0.10E+00    5.3     0.33020372       -49.2825276404 -1.00E-04
    99 Broy./Diag. 0.10E+00    5.4     0.32087932       -49.2826586448 -1.31E-04
   100 Broy./Diag. 0.10E+00    5.3     0.32293048       -49.2827538664 -9.52E-05
   101 Broy./Diag. 0.10E+00    5.3     0.33216287       -49.2828783290 -1.24E-04
   102 Broy./Diag. 0.10E+00    5.3     0.34113802       -49.2829689351 -9.06E-05
   103 Broy./Diag. 0.10E+00    5.4     0.34978080       -49.2830871898 -1.18E-04
   104 Broy./Diag. 0.10E+00    5.3     0.35814536       -49.2831734540 -8.63E-05
   105 Broy./Diag. 0.10E+00    5.3     0.36615769       -49.2832858315 -1.12E-04
   106 Broy./Diag. 0.10E+00    5.3     0.37386947       -49.2833680230 -8.22E-05
   107 Broy./Diag. 0.10E+00    5.3     0.38120882       -49.2834748519 -1.07E-04
   108 Broy./Diag. 0.10E+00    5.3     0.38822615       -49.2835532360 -7.84E-05
   109 Broy./Diag. 0.10E+00    5.4     0.39485286       -49.2836548417 -1.02E-04
   110 Broy./Diag. 0.10E+00    5.3     0.40113908       -49.2837296770 -7.48E-05
   111 Broy./Diag. 0.10E+00    5.3     0.40702036       -49.2838263750 -9.67E-05
   112 Broy./Diag. 0.10E+00    5.3     0.41254705       -49.2838979057 -7.15E-05
   113 Broy./Diag. 0.10E+00    5.3     0.41765916       -49.2839899939 -9.21E-05
   114 Broy./Diag. 0.10E+00    5.3     0.42240705       -49.2840584423 -6.84E-05
   115 Broy./Diag. 0.10E+00    5.3     0.42673480       -49.2841461927 -8.78E-05
   116 Broy./Diag. 0.10E+00    5.3     0.43069203       -49.2842117533 -6.56E-05
   117 Broy./Diag. 0.10E+00    5.3     0.43422613       -49.2842954080 -8.37E-05
   118 Broy./Diag. 0.10E+00    5.3     0.43738492       -49.2843582462 -6.28E-05
   119 Broy./Diag. 0.10E+00    5.3     0.44011834       -49.2844380177 -7.98E-05
   120 Broy./Diag. 0.10E+00    5.4     0.44247156       -49.2844982732 -6.03E-05
   121 Broy./Diag. 0.10E+00    5.3     0.44439668       -49.2845743494 -7.61E-05
   122 Broy./Diag. 0.10E+00    5.3     0.44593588       -49.2846321438 -5.78E-05
   123 Broy./Diag. 0.10E+00    5.3     0.44704356       -49.2847046963 -7.26E-05
   124 Broy./Diag. 0.10E+00    5.3     0.44775919       -49.2847601416 -5.54E-05
   125 Broy./Diag. 0.10E+00    5.3     0.44804010       -49.2848293343 -6.92E-05
   126 Broy./Diag. 0.10E+00    5.4     0.44792375       -49.2848825421 -5.32E-05
   127 Broy./Diag. 0.10E+00    5.4     0.44737118       -49.2849485389 -6.60E-05
   128 Broy./Diag. 0.10E+00    5.3     0.44641869       -49.2849996255 -5.11E-05
   129 Broy./Diag. 0.10E+00    5.3     0.44503168       -49.2850625950 -6.30E-05
   130 Broy./Diag. 0.10E+00    5.3     0.44324568       -49.2851116831 -4.91E-05
   131 Broy./Diag. 0.10E+00    5.4     0.44103063       -49.2851717972 -6.01E-05
   132 Broy./Diag. 0.10E+00    5.3     0.43842117       -49.2852190123 -4.72E-05
   133 Broy./Diag. 0.10E+00    5.3     0.43539132       -49.2852764407 -5.74E-05
   134 Broy./Diag. 0.10E+00    5.3     0.43197408       -49.2853219033 -4.55E-05
   135 Broy./Diag. 0.10E+00    5.3     0.42814669       -49.2853768051 -5.49E-05
   136 Broy./Diag. 0.10E+00    5.3     0.42393958       -49.2854206232 -4.38E-05
   137 Broy./Diag. 0.10E+00    5.3     0.41933230       -49.2854731399 -5.25E-05
   138 Broy./Diag. 0.10E+00    5.3     0.41435197       -49.2855154030 -4.23E-05
   139 Broy./Diag. 0.10E+00    5.3     0.40897991       -49.2855656545 -5.03E-05
   140 Broy./Diag. 0.10E+00    5.3     0.40323983       -49.2856064328 -4.08E-05
   141 Broy./Diag. 0.10E+00    5.3     0.39711493       -49.2856545181 -4.81E-05
   142 Broy./Diag. 0.10E+00    5.3     0.39062606       -49.2856938660 -3.93E-05
   143 Broy./Diag. 0.10E+00    5.3     0.38375896       -49.2857398687 -4.60E-05
   144 Broy./Diag. 0.10E+00    5.3     0.37653286       -49.2857778310 -3.80E-05
   145 Broy./Diag. 0.10E+00    5.3     0.36893703       -49.2858218268 -4.40E-05
   146 Broy./Diag. 0.10E+00    5.4     0.36099047       -49.2858584470 -3.66E-05
   147 Broy./Diag. 0.10E+00    5.3     0.35268703       -49.2859005122 -4.21E-05
   148 Broy./Diag. 0.10E+00    5.4     0.34404663       -49.2859358398 -3.53E-05
   149 Broy./Diag. 0.10E+00    5.3     0.33506837       -49.2859760590 -4.02E-05
   150 Broy./Diag. 0.10E+00    5.3     0.32577366       -49.2860101552 -3.41E-05
   151 Broy./Diag. 0.10E+00    5.3     0.31703635       -49.2860486247 -3.85E-05
   152 Broy./Diag. 0.10E+00    5.3     0.32659743       -49.2860815636 -3.29E-05
   153 Broy./Diag. 0.10E+00    5.3     0.33583597       -49.2861183917 -3.68E-05
   154 Broy./Diag. 0.10E+00    5.4     0.34474743       -49.2861502569 -3.19E-05
   155 Broy./Diag. 0.10E+00    5.3     0.35331232       -49.2861855583 -3.53E-05
   156 Broy./Diag. 0.10E+00    5.3     0.36152951       -49.2862164364 -3.09E-05
   157 Broy./Diag. 0.10E+00    5.3     0.36938258       -49.2862503244 -3.39E-05
   158 Broy./Diag. 0.10E+00    5.3     0.37687423       -49.2862802962 -3.00E-05
   159 Broy./Diag. 0.10E+00    5.4     0.38399118       -49.2863128740 -3.26E-05
   160 Broy./Diag. 0.10E+00    5.3     0.39073951       -49.2863420071 -2.91E-05
   161 Broy./Diag. 0.10E+00    5.3     0.39710857       -49.2863733611 -3.14E-05
   162 Broy./Diag. 0.10E+00    5.3     0.40310678       -49.2864017050 -2.83E-05
   163 Broy./Diag. 0.10E+00    5.3     0.40872514       -49.2864319012 -3.02E-05
   164 Broy./Diag. 0.10E+00    5.3     0.41397314       -49.2864594859 -2.76E-05
   165 Broy./Diag. 0.10E+00    5.4     0.41884239       -49.2864885690 -2.91E-05
   166 Broy./Diag. 0.10E+00    5.3     0.42334208       -49.2865154054 -2.68E-05
   167 Broy./Diag. 0.10E+00    5.3     0.42746346       -49.2865434000 -2.80E-05
   168 Broy./Diag. 0.10E+00    5.3     0.43121433       -49.2865694827 -2.61E-05
   169 Broy./Diag. 0.10E+00    5.3     0.43458484       -49.2865963971 -2.69E-05
   170 Broy./Diag. 0.10E+00    5.4     0.43758062       -49.2866217078 -2.53E-05
   171 Broy./Diag. 0.10E+00    5.4     0.44019027       -49.2866475381 -2.58E-05
   172 Broy./Diag. 0.10E+00    5.3     0.44241705       -49.2866720515 -2.45E-05
   173 Broy./Diag. 0.10E+00    5.3     0.44424795       -49.2866967880 -2.47E-05
   174 Broy./Diag. 0.10E+00    5.3     0.44568426       -49.2867204780 -2.37E-05
   175 Broy./Diag. 0.10E+00    5.3     0.44671195       -49.2867441133 -2.36E-05
   176 Broy./Diag. 0.10E+00    5.4     0.44733132       -49.2867669620 -2.28E-05
   177 Broy./Diag. 0.10E+00    5.3     0.44752850       -49.2867895008 -2.25E-05
   178 Broy./Diag. 0.10E+00    5.3     0.44730442       -49.2868115078 -2.20E-05
   179 Broy./Diag. 0.10E+00    5.3     0.44664689       -49.2868329769 -2.15E-05
   180 Broy./Diag. 0.10E+00    5.3     0.44555927       -49.2868541676 -2.12E-05
   181 Broy./Diag. 0.10E+00    5.3     0.44403259       -49.2868746224 -2.05E-05
   182 Broy./Diag. 0.10E+00    5.3     0.44207396       -49.2868950513 -2.04E-05
   183 Broy./Diag. 0.10E+00    5.3     0.43967857       -49.2869145762 -1.95E-05
   184 Broy./Diag. 0.10E+00    5.3     0.43685761       -49.2869343227 -1.97E-05
   185 Broy./Diag. 0.10E+00    5.3     0.43361035       -49.2869530226 -1.87E-05
   186 Broy./Diag. 0.10E+00    5.3     0.42995122       -49.2869721787 -1.92E-05
   187 Broy./Diag. 0.10E+00    5.3     0.42588247       -49.2869901640 -1.80E-05
   188 Broy./Diag. 0.10E+00    5.3     0.42142007       -49.2870088186 -1.87E-05
   189 Broy./Diag. 0.10E+00    5.3     0.41656765       -49.2870261892 -1.74E-05
   190 Broy./Diag. 0.10E+00    5.3     0.41134084       -49.2870444142 -1.82E-05
   191 Broy./Diag. 0.10E+00    5.3     0.40574324       -49.2870612478 -1.68E-05
[...]
   417 Broy./Diag. 0.10E+00    5.3     0.38464685       -49.2882355186 -9.91E-07
   418 Broy./Diag. 0.10E+00    5.3     0.39142506       -49.2882364158 -8.97E-07
   419 Broy./Diag. 0.10E+00    5.4     0.39783611       -49.2882373437 -9.28E-07
   420 Broy./Diag. 0.10E+00    5.3     0.40387362       -49.2882381991 -8.55E-07
   421 Broy./Diag. 0.10E+00    5.3     0.40953002       -49.2882390910 -8.92E-07
   422 Broy./Diag. 0.10E+00    5.3     0.41480127       -49.2882399310 -8.40E-07
   423 Broy./Diag. 0.10E+00    5.3     0.41968202       -49.2882408126 -8.82E-07
   424 Broy./Diag. 0.10E+00    5.3     0.42417028       -49.2882416582 -8.46E-07
   425 Broy./Diag. 0.10E+00    5.3     0.42826231       -49.2882425466 -8.88E-07
   426 Broy./Diag. 0.10E+00    5.4     0.43195734       -49.2882434077 -8.61E-07
   427 Broy./Diag. 0.10E+00    5.3     0.43525234       -49.2882443072 -8.99E-07
   428 Broy./Diag. 0.10E+00    5.4     0.43814680       -49.2882451805 -8.73E-07
   429 Broy./Diag. 0.10E+00    5.4     0.44063763       -49.2882460824 -9.02E-07
   430 Broy./Diag. 0.10E+00    5.3     0.44272400       -49.2882469529 -8.71E-07
   431 Broy./Diag. 0.10E+00    5.3     0.44440241       -49.2882478393 -8.86E-07
   432 Broy./Diag. 0.10E+00    5.3     0.44567167       -49.2882486859 -8.47E-07
   433 Broy./Diag. 0.10E+00    5.3     0.44652813       -49.2882495359 -8.50E-07
   434 Broy./Diag. 0.10E+00    5.3     0.44697072       -49.2882503383 -8.02E-07
   435 Broy./Diag. 0.10E+00    5.4     0.44699634       -49.2882511356 -7.97E-07
   436 Broy./Diag. 0.10E+00    5.3     0.44660485       -49.2882518813 -7.46E-07
   437 Broy./Diag. 0.10E+00    5.3     0.44579450       -49.2882526200 -7.39E-07
   438 Broy./Diag. 0.10E+00    5.3     0.44456678       -49.2882533086 -6.89E-07
   439 Broy./Diag. 0.10E+00    5.3     0.44292184       -49.2882539955 -6.87E-07
   440 Broy./Diag. 0.10E+00    5.3     0.44086303       -49.2882546395 -6.44E-07
   441 Broy./Diag. 0.10E+00    5.3     0.43839235       -49.2882552928 -6.53E-07
   442 Broy./Diag. 0.10E+00    5.3     0.43551468       -49.2882559126 -6.20E-07
   443 Broy./Diag. 0.10E+00    5.3     0.43223321       -49.2882565553 -6.43E-07
   444 Broy./Diag. 0.10E+00    5.3     0.42855349       -49.2882571728 -6.18E-07
   445 Broy./Diag. 0.10E+00    5.3     0.42447901       -49.2882578247 -6.52E-07
   446 Broy./Diag. 0.10E+00    5.3     0.42001506       -49.2882584550 -6.30E-07
   447 Broy./Diag. 0.10E+00    5.4     0.41516460       -49.2882591263 -6.71E-07
   448 Broy./Diag. 0.10E+00    5.4     0.40993207       -49.2882597727 -6.46E-07
   449 Broy./Diag. 0.10E+00    5.3     0.40431965       -49.2882604607 -6.88E-07
   450 Broy./Diag. 0.10E+00    5.4     0.39833097       -49.2882611136 -6.53E-07
   451 Broy./Diag. 0.10E+00    5.4     0.39196780       -49.2882618039 -6.90E-07
   452 Broy./Diag. 0.10E+00    5.4     0.38523370       -49.2882624442 -6.40E-07
   453 Broy./Diag. 0.10E+00    5.3     0.37813099       -49.2882631153 -6.71E-07
   454 Broy./Diag. 0.10E+00    5.3     0.37066429       -49.2882637200 -6.05E-07
   455 Broy./Diag. 0.10E+00    5.3     0.36283769       -49.2882643499 -6.30E-07
   456 Broy./Diag. 0.10E+00    5.3     0.35465811       -49.2882648994 -5.50E-07
   457 Broy./Diag. 0.10E+00    5.3     0.34613250       -49.2882654736 -5.74E-07
   458 Broy./Diag. 0.10E+00    5.3     0.33727093       -49.2882659588 -4.85E-07
   459 Broy./Diag. 0.10E+00    5.4     0.32808376       -49.2882664755 -5.17E-07
   460 Broy./Diag. 0.10E+00    5.3     0.31858439       -49.2882669022 -4.27E-07
   461 Broy./Diag. 0.10E+00    5.3     0.32324225       -49.2882673753 -4.73E-07
   462 Broy./Diag. 0.10E+00    5.3     0.33258048       -49.2882677648 -3.89E-07
   463 Broy./Diag. 0.10E+00    5.3     0.34159083       -49.2882682223 -4.58E-07
   464 Broy./Diag. 0.10E+00    5.4     0.35026267       -49.2882686072 -3.85E-07
   465 Broy./Diag. 0.10E+00    5.3     0.35858483       -49.2882690853 -4.78E-07
   466 Broy./Diag. 0.10E+00    5.3     0.36655004       -49.2882695025 -4.17E-07
   467 Broy./Diag. 0.10E+00    5.3     0.37415060       -49.2882700375 -5.35E-07
   468 Broy./Diag. 0.10E+00    5.3     0.38138272       -49.2882705203 -4.83E-07
   469 Broy./Diag. 0.10E+00    5.3     0.38824192       -49.2882711405 -6.20E-07
   470 Broy./Diag. 0.10E+00    5.3     0.39472735       -49.2882717111 -5.71E-07
   471 Broy./Diag. 0.10E+00    5.3     0.40083692       -49.2882724318 -7.21E-07
   472 Broy./Diag. 0.10E+00    5.3     0.40657167       -49.2882730973 -6.66E-07
   473 Broy./Diag. 0.10E+00    5.3     0.41193075       -49.2882739173 -8.20E-07
   474 Broy./Diag. 0.10E+00    5.4     0.41691586       -49.2882746684 -7.51E-07
   475 Broy./Diag. 0.10E+00    5.5     0.42152627       -49.2882755701 -9.02E-07
   476 Broy./Diag. 0.10E+00    5.4     0.42576318       -49.2882763813 -8.11E-07
   477 Broy./Diag. 0.10E+00    5.3     0.42962492       -49.2882773321 -9.51E-07
   478 Broy./Diag. 0.10E+00    5.3     0.43311131       -49.2882781647 -8.33E-07
   479 Broy./Diag. 0.10E+00    5.3     0.43621903       -49.2882791203 -9.56E-07
   480 Broy./Diag. 0.10E+00    5.3     0.43894597       -49.2882799256 -8.05E-07
   481 Broy./Diag. 0.10E+00    5.4     0.44128683       -49.2882808340 -9.08E-07
   482 Broy./Diag. 0.10E+00    5.3     0.44323752       -49.2882815587 -7.25E-07
   483 Broy./Diag. 0.10E+00    5.3     0.44479100       -49.2882823666 -8.08E-07
   484 Broy./Diag. 0.10E+00    5.3     0.44594174       -49.2882829597 -5.93E-07
   485 Broy./Diag. 0.10E+00    5.3     0.44668181       -49.2882836204 -6.61E-07
   486 Broy./Diag. 0.10E+00    5.3     0.44700541       -49.2882840422 -4.22E-07
   487 Broy./Diag. 0.10E+00    5.3     0.44690518       -49.2882845250 -4.83E-07
   488 Broy./Diag. 0.10E+00    5.3     0.44637667       -49.2882847566 -2.32E-07
   489 Broy./Diag. 0.10E+00    5.3     0.44541474       -49.2882850556 -2.99E-07
   490 Broy./Diag. 0.10E+00    5.3     0.44401797       -49.2882851059 -5.02E-08
   491 Broy./Diag. 0.10E+00    5.3     0.44218483       -49.2882852452 -1.39E-07
   492 Broy./Diag. 0.10E+00    5.3     0.43991795       -49.2882851528  9.24E-08
   493 Broy./Diag. 0.10E+00    5.3     0.43722000       -49.2882851837 -3.10E-08
   494 Broy./Diag. 0.10E+00    5.3     0.43409762       -49.2882850106  1.73E-07
   495 Broy./Diag. 0.10E+00    5.3     0.43055708       -49.2882850017  8.91E-09
   496 Broy./Diag. 0.10E+00    5.3     0.42660794       -49.2882848195  1.82E-07
   497 Broy./Diag. 0.10E+00    5.3     0.42225861       -49.2882848409 -2.15E-08
   498 Broy./Diag. 0.10E+00    5.4     0.41751984       -49.2882847152  1.26E-07
   499 Broy./Diag. 0.10E+00    5.4     0.41240046       -49.2882848245 -1.09E-07
   500 Broy./Diag. 0.10E+00    5.4     0.40691074       -49.2882848028  2.17E-08

  Leaving inner SCF loop after reaching   500 steps.


  Electronic density on regular grids:         -6.5644439116        3.4355560884
  Core density on regular grids:               10.0000000000        0.0000000000
  Hard and soft densities (Lebedev):          -21.1046162549      -17.6690601434
  Total Rho_soft + Rho1_hard - Rho1_soft      -10.0000000230
  Total charge density (r-space):              -0.0000000230
  Total Rho_soft + Rho0_soft (g-space):        -0.0000000750

  Overlap energy of the core charge distribution:               0.00000845868521
  Self energy of the core charge distribution:                -32.50467561761386
  Core Hamiltonian energy:                                    -13.40366655937014
  Hartree energy:                                              11.36312260413374
  Exchange-correlation energy:                                 -2.09992908165708

  GAPW| Exc from hard and soft atomic rho1:                    -5.65679951463265
  GAPW| local Eh = 1 center integrals:                         -6.98634509234629

  Total energy:                                               -49.28828480280107

 *******************************************************************************
 *   ___                                                                       *
 *  /   \                                                                      *
 * [ABORT]                                                                     *
 *  \___/     SCF run NOT converged. To continue the calculation regardless,   *
 *    |             please set the keyword IGNORE_CONVERGENCE_FAILURE.         *
 *  O/|                                                                        *
 * /| |                                                                        *
 * / \                                                            qs_scf.F:611 *
 *******************************************************************************


 ===== Routine Calling Stack ===== 

            3 scf_env_do_scf
            2 qs_energies
            1 CP2K

 *******************************************************************************
 *   ___                                                                       *
 *  /   \                                                                      *
 * [ABORT]                                                                     *
 *  \___/     SCF run NOT converged. To continue the calculation regardless,   *
 *    |             please set the keyword IGNORE_CONVERGENCE_FAILURE.         *
 *  O/|                                                                        *
 * /| |                                                                        *
 * / \                                                            qs_scf.F:611 *
 *******************************************************************************


 ===== Routine Calling Stack ===== 

            3 scf_env_do_scf
            2 qs_energies
            1 CP2K

 *******************************************************************************
 *   ___                                                                       *
 *  /   \                                                                      *
 * [ABORT]                                                                     *
 *  \___/     SCF run NOT converged. To continue the calculation regardless,   *
 *    |             please set the keyword IGNORE_CONVERGENCE_FAILURE.         *
 *  O/|                                                                        *
 * /| |                                                                        *
 * / \                                                            qs_scf.F:611 *
 *******************************************************************************


 ===== Routine Calling Stack ===== 

            3 scf_env_do_scf
            2 qs_energies
            1 CP2K

 *******************************************************************************
 *   ___                                                                       *
 *  /   \                                                                      *
 * [ABORT]                                                                     *
 *  \___/     SCF run NOT converged. To continue the calculation regardless,   *
 *    |             please set the keyword IGNORE_CONVERGENCE_FAILURE.         *
 *  O/|                                                                        *
 * /| |                                                                        *
 * / \                                                            qs_scf.F:611 *
 *******************************************************************************


 ===== Routine Calling Stack ===== 

            3 scf_env_do_scf
            2 qs_energies
            1 CP2K

 *******************************************************************************
 *   ___                                                                       *
 *  /   \                                                                      *
 * [ABORT]                                                                     *
 *  \___/     SCF run NOT converged. To continue the calculation regardless,   *
 *    |             please set the keyword IGNORE_CONVERGENCE_FAILURE.         *
 *  O/|                                                                        *
 * /| |                                                                        *
 * / \                                                            qs_scf.F:611 *
 *******************************************************************************


 ===== Routine Calling Stack ===== 

            3 scf_env_do_scf
            2 qs_energies
            1 CP2K

 *******************************************************************************
 *   ___                                                                       *
 *  /   \                                                                      *
 * [ABORT]                                                                     *
 *  \___/     SCF run NOT converged. To continue the calculation regardless,   *
 *    |             please set the keyword IGNORE_CONVERGENCE_FAILURE.         *
 *  O/|                                                                        *
 * /| |                                                                        *
 * / \                                                            qs_scf.F:611 *
 *******************************************************************************


 ===== Routine Calling Stack ===== 

            3 scf_env_do_scf
            2 qs_energies
            1 CP2K

 *******************************************************************************
 *   ___                                                                       *
 *  /   \                                                                      *
 * [ABORT]                                                                     *
 *  \___/     SCF run NOT converged. To continue the calculation regardless,   *
 *    |             please set the keyword IGNORE_CONVERGENCE_FAILURE.         *
 *  O/|                                                                        *
 * /| |                                                                        *
 * / \                                                            qs_scf.F:611 *
 *******************************************************************************


 ===== Routine Calling Stack ===== 

            3 scf_env_do_scf
            2 qs_energies
            1 CP2K

 *******************************************************************************
 *   ___                                                                       *
 *  /   \                                                                      *
 * [ABORT]                                                                     *
 *  \___/     SCF run NOT converged. To continue the calculation regardless,   *
 *    |             please set the keyword IGNORE_CONVERGENCE_FAILURE.         *
 *  O/|                                                                        *
 * /| |                                                                        *
 * / \                                                            qs_scf.F:611 *
 *******************************************************************************


 ===== Routine Calling Stack ===== 

            3 scf_env_do_scf
            2 qs_energies
            1 CP2K

 *******************************************************************************
 *   ___                                                                       *
 *  /   \                                                                      *
 * [ABORT]                                                                     *
 *  \___/     SCF run NOT converged. To continue the calculation regardless,   *
 *    |             please set the keyword IGNORE_CONVERGENCE_FAILURE.         *
 *  O/|                                                                        *
 * /| |                                                                        *
 * / \                                                            qs_scf.F:611 *
 *******************************************************************************


 ===== Routine Calling Stack ===== 

            3 scf_env_do_scf
            2 qs_energies
            1 CP2K

 *******************************************************************************
 *   ___                                                                       *
 *  /   \                                                                      *
 * [ABORT]                                                                     *
 *  \___/     SCF run NOT converged. To continue the calculation regardless,   *
 *    |             please set the keyword IGNORE_CONVERGENCE_FAILURE.         *
 *  O/|                                                                        *
 * /| |                                                                        *
 * / \                                                            qs_scf.F:611 *
 *******************************************************************************


 ===== Routine Calling Stack ===== 

            3 scf_env_do_scf
            2 qs_energies
            1 CP2K

 *******************************************************************************
 *   ___                                                                       *
 *  /   \                                                                      *
 * [ABORT]                                                                     *
 *  \___/     SCF run NOT converged. To continue the calculation regardless,   *
 *    |             please set the keyword IGNORE_CONVERGENCE_FAILURE.         *
 *  O/|                                                                        *
 * /| |                                                                        *
 * / \                                                            qs_scf.F:611 *
 *******************************************************************************


 ===== Routine Calling Stack ===== 

            3 scf_env_do_scf
            2 qs_energies
            1 CP2K

 *******************************************************************************
 *   ___                                                                       *
 *  /   \                                                                      *
 * [ABORT]                                                                     *
 *  \___/     SCF run NOT converged. To continue the calculation regardless,   *
 *    |             please set the keyword IGNORE_CONVERGENCE_FAILURE.         *
 *  O/|                                                                        *
 * /| |                                                                        *
 * / \                                                            qs_scf.F:611 *
 *******************************************************************************


 ===== Routine Calling Stack ===== 

            3 scf_env_do_scf
            2 qs_energies
            1 CP2K

 *******************************************************************************
 *   ___                                                                       *
 *  /   \                                                                      *
 * [ABORT]                                                                     *
 *  \___/     SCF run NOT converged. To continue the calculation regardless,   *
 *    |             please set the keyword IGNORE_CONVERGENCE_FAILURE.         *
 *  O/|                                                                        *
 * /| |                                                                        *
 * / \                                                            qs_scf.F:611 *
 *******************************************************************************


 ===== Routine Calling Stack ===== 

            3 scf_env_do_scf
            2 qs_energies
            1 CP2K
