 DBCSR| CPU Multiplication driver                                           BLAS (U)
 DBCSR| Multrec recursion limit                                              512 (U)
 DBCSR| Multiplication stack size                                           1000 (D)
 DBCSR| Maximum elements for images                                    UNLIMITED (U)
 DBCSR| Multiplicative factor virtual images                                   1 (U)
 DBCSR| Use multiplication densification                                       T (D)
 DBCSR| Multiplication size stacks                                             3 (U)
 DBCSR| Use memory pool for CPU allocation                                     F (U)
 DBCSR| Number of 3D layers                                               SINGLE (U)
 DBCSR| Use MPI memory allocation                                              F (U)
 DBCSR| Use RMA algorithm                                                      F (U)
 DBCSR| Use Communication thread                                               T (U)
 DBCSR| Communication thread load                                             75 (D)
 DBCSR| MPI: My process id                                                     0
 DBCSR| MPI: Number of processes                                              24
 DBCSR| OMP: Current number of threads                                         4
 DBCSR| OMP: Max number of threads                                             4
 DBCSR| Split modifier for TAS multiplication algorithm                  1.0E+00 (U)


  **** **** ******  **  PROGRAM STARTED AT               2025-03-16 14:55:42.874
 ***** ** ***  *** **   PROGRAM STARTED ON                          i05r01c03s11
 **    ****   ******    PROGRAM STARTED BY                               di38fab
 ***** **    ** ** **   PROGRAM PROCESS ID                               3779212
  **** **  *******  **  PROGRAM STARTED IN /hppfs/scratch/04/di38fab/05_MOL/W4-1
                                           1+ALK/o2/SZV/GW+BSE/1e-3

 CP2K| version string:                 CP2K version 2025.1 (Development Version)
 CP2K| source code revision number:                                  git:d2e611a
 CP2K| cp2kflags: omp libint fftw3 libxc parallel scalapack max_contr=4         
 CP2K| is freely available from                            https://www.cp2k.org/
 CP2K| Program compiled at                       Thu 06 Mar 2025 05:09:20 PM CET
 CP2K| Program compiled on                                               login02
 CP2K| Program compiled for                                        Supermuc-foss
 CP2K| Data directory path                  /hppfs/work/pn36zo/di38fab/cp2k/data
 CP2K| Input file name                                                    GW.inp

 GLOBAL| Force Environment number                                              1
 GLOBAL| Basis set file name            /hppfs/scratch/04/di38fab/04_TMD/BASIS_A
 GLOBAL| Potential file name            /hppfs/work/pn36zo/di38fab/cp2k/data/ALL
 GLOBAL| MM Potential file name                                     MM_POTENTIAL
 GLOBAL| Coordinate file name                                      __STD_INPUT__
 GLOBAL| Method name                                                        CP2K
 GLOBAL| Project name                                                       MoS2
 GLOBAL| Run type                                                         ENERGY
 GLOBAL| FFT library                                                       FFTW3
 GLOBAL| Diagonalization library                                       ScaLAPACK
 GLOBAL| DGEMM library                                                      BLAS
 GLOBAL| Orthonormality check for eigenvectors                          DISABLED
 GLOBAL| Matrix multiplication library                                 ScaLAPACK
 GLOBAL| All-to-all communication in single precision                          F
 GLOBAL| FFTs using library dependent lengths                                  F
 GLOBAL| Grid backend                                                       AUTO
 GLOBAL| Global print level                                               MEDIUM
 GLOBAL| MPI I/O enabled                                                       T
 GLOBAL| Total number of message passing processes                            24
 GLOBAL| Number of threads for this process                                    4
 GLOBAL| This output is from process                                           0
 GLOBAL| OpenMP stack size per thread (OMP_STACKSIZE)                    default
 GLOBAL| CPU model name             Intel(R) Xeon(R) Platinum 8174 CPU @ 3.10GHz

 MEMORY| system memory details [Kb]
 MEMORY|                        rank 0           min           max       average
 MEMORY| MemTotal             98436692      98436660      98436692      98436676
 MEMORY| MemFree              84894204      83998636      84894204      84446420
 MEMORY| Buffers                     0             0             0             0
 MEMORY| Cached                2359900       2359900       2385836       2372868
 MEMORY| Slab                  1087064       1087064       1226300       1156682
 MEMORY| SReclaimable           243724        243724        275364        259544
 MEMORY| MemLikelyFree        87497828      86659836      87497828      87078832


 *** Fundamental physical constants (SI units) ***

 *** Literature: B. J. Mohr and B. N. Taylor,
 ***             CODATA recommended values of the fundamental physical
 ***             constants: 2006, Web Version 5.1
 ***             http://physics.nist.gov/constants

 Speed of light in vacuum [m/s]                             2.99792458000000E+08
 Magnetic constant or permeability of vacuum [N/A**2]       1.25663706143592E-06
 Electric constant or permittivity of vacuum [F/m]          8.85418781762039E-12
 Planck constant (h) [J*s]                                  6.62606896000000E-34
 Planck constant (h-bar) [J*s]                              1.05457162825177E-34
 Elementary charge [C]                                      1.60217648700000E-19
 Electron mass [kg]                                         9.10938215000000E-31
 Electron g factor [ ]                                     -2.00231930436220E+00
 Proton mass [kg]                                           1.67262163700000E-27
 Fine-structure constant                                    7.29735253760000E-03
 Rydberg constant [1/m]                                     1.09737315685270E+07
 Avogadro constant [1/mol]                                  6.02214179000000E+23
 Boltzmann constant [J/K]                                   1.38065040000000E-23
 Atomic mass unit [kg]                                      1.66053878200000E-27
 Bohr radius [m]                                            5.29177208590000E-11

 *** Conversion factors ***

 [u] -> [a.u.]                                              1.82288848426455E+03
 [Angstrom] -> [Bohr] = [a.u.]                              1.88972613288564E+00
 [a.u.] = [Bohr] -> [Angstrom]                              5.29177208590000E-01
 [a.u.] -> [s]                                              2.41888432650478E-17
 [a.u.] -> [fs]                                             2.41888432650478E-02
 [a.u.] -> [J]                                              4.35974393937059E-18
 [a.u.] -> [N]                                              8.23872205491840E-08
 [a.u.] -> [K]                                              3.15774647902944E+05
 [a.u.] -> [kJ/mol]                                         2.62549961709828E+03
 [a.u.] -> [kcal/mol]                                       6.27509468713739E+02
 [a.u.] -> [Pa]                                             2.94210107994716E+13
 [a.u.] -> [bar]                                            2.94210107994716E+08
 [a.u.] -> [atm]                                            2.90362800883016E+08
 [a.u.] -> [eV]                                             2.72113838565563E+01
 [a.u.] -> [Hz]                                             6.57968392072181E+15
 [a.u.] -> [1/cm] (wave numbers)                            2.19474631370540E+05
 [a.u./Bohr**2] -> [1/cm]                                   5.14048714338585E+03
 

 CELL_TOP| Volume [angstrom^3]:                                     27000.000000
 CELL_TOP| Vector a [angstrom    30.000     0.000     0.000   |a| =    30.000000
 CELL_TOP| Vector b [angstrom     0.000    30.000     0.000   |b| =    30.000000
 CELL_TOP| Vector c [angstrom     0.000     0.000    30.000   |c| =    30.000000
 CELL_TOP| Angle (b,c), alpha [degree]:                                90.000000
 CELL_TOP| Angle (a,c), beta  [degree]:                                90.000000
 CELL_TOP| Angle (a,b), gamma [degree]:                                90.000000
 CELL_TOP| Numerically orthorhombic:                                         YES
 CELL_TOP| Periodicity                                                      NONE

 GENERATE|  Preliminary Number of Bonds generated:                             0
 GENERATE|  Achieved consistency in connectivity generation.

 CELL| Volume [angstrom^3]:                                         27000.000000
 CELL| Vector a [angstrom]:      30.000     0.000     0.000   |a| =    30.000000
 CELL| Vector b [angstrom]:       0.000    30.000     0.000   |b| =    30.000000
 CELL| Vector c [angstrom]:       0.000     0.000    30.000   |c| =    30.000000
 CELL| Angle (b,c), alpha [degree]:                                    90.000000
 CELL| Angle (a,c), beta  [degree]:                                    90.000000
 CELL| Angle (a,b), gamma [degree]:                                    90.000000
 CELL| Numerically orthorhombic:                                             YES
 CELL| Periodicity                                                          NONE

 CELL_REF| Volume [angstrom^3]:                                     27000.000000
 CELL_REF| Vector a [angstrom    30.000     0.000     0.000   |a| =    30.000000
 CELL_REF| Vector b [angstrom     0.000    30.000     0.000   |b| =    30.000000
 CELL_REF| Vector c [angstrom     0.000     0.000    30.000   |c| =    30.000000
 CELL_REF| Angle (b,c), alpha [degree]:                                90.000000
 CELL_REF| Angle (a,c), beta  [degree]:                                90.000000
 CELL_REF| Angle (a,b), gamma [degree]:                                90.000000
 CELL_REF| Numerically orthorhombic:                                         YES
 CELL_REF| Periodicity                                                      NONE

 *******************************************************************************
 *******************************************************************************
 **                                                                           **
 **     #####                         ##              ##                      **
 **    ##   ##            ##          ##              ##                      **
 **   ##     ##                       ##            ######                    **
 **   ##     ##  ##   ##  ##   #####  ##  ##   ####   ##    #####    #####    **
 **   ##     ##  ##   ##  ##  ##      ## ##   ##      ##   ##   ##  ##   ##   **
 **   ##  ## ##  ##   ##  ##  ##      ####     ###    ##   ######   ######    **
 **    ##  ###   ##   ##  ##  ##      ## ##      ##   ##   ##       ##        **
 **     #######   #####   ##   #####  ##  ##  ####    ##    #####   ##        **
 **           ##                                                    ##        **
 **                                                                           **
 **                                                ... make the atoms dance   **
 **                                                                           **
 **            Copyright (C) by CP2K developers group (2000-2025)             **
 **                      J. Chem. Phys. 152, 194103 (2020)                    **
 **                                                                           **
 *******************************************************************************

 DFT| Spin restricted Kohn-Sham (RKS) calculation                            RKS
 DFT| Multiplicity                                                             1
 DFT| Number of spin states                                                    1
 DFT| Charge                                                                   0
 DFT| Self-interaction correction (SIC)                                       NO
 DFT| Cutoffs: density                                              1.000000E-10
 DFT|          gradient                                             1.000000E-10
 DFT|          tau                                                  1.000000E-10
 DFT|          cutoff_smoothing_range                               0.000000E+00
 DFT| XC density smoothing                                                  NONE
 DFT| XC derivatives                                                          PW

 FUNCTIONAL| PBE:
 FUNCTIONAL| J.P.Perdew, K.Burke, M.Ernzerhof, Phys. Rev. Letter, vol. 77, n 18,
 FUNCTIONAL|  pp. 3865-3868, (1996)sx=0.750sc=1.000{spin unpolarized}           


 QS| Method:                                                                GAPW
 QS| Density plane wave grid type                        NON-SPHERICAL FULLSPACE
 QS| Number of grid levels:                                                    4
 QS| Density cutoff [a.u.]:                                                250.0
 QS| Multi grid cutoff [a.u.]: 1) grid level                               250.0
 QS|                           2) grid level                                83.3
 QS|                           3) grid level                                27.8
 QS|                           4) grid level                                 9.3
 QS| Grid level progression factor:                                          3.0
 QS| Relative density cutoff [a.u.]:                                        50.0
 QS| Interaction thresholds: eps_pgf_orb:                                1.0E-12
 QS|                         eps_filter_matrix:                          0.0E+00
 QS|                         eps_core_charge:                            1.0E-14
 QS|                         eps_rho_gspace:                             1.0E-12
 QS|                         eps_rho_rspace:                             1.0E-12
 QS|                         eps_gvg_rspace:                             1.0E-06
 QS|                         eps_ppl:                                    1.0E-02
 QS|                         eps_ppnl:                                   1.0E-08
 QS| GAPW|      One center basis from orbital basis primitives
 QS| GAPW|                   eps_fit:                                    1.0E-04
 QS| GAPW|                   eps_iso:                                    1.0E-12
 QS| GAPW|                   eps_svd:                                    1.0E-08
 QS| GAPW|                   eps_cpc:                                    1.0E-12
 QS| GAPW|   atom-r-grid: quadrature:                                     GC_LOG
 QS| GAPW|      atom-s-grid:  max l :                                          2
 QS| GAPW|      max_l_rho0 :                                                   2


 ATOMIC KIND INFORMATION

  1. Atomic kind: O                                     Number of atoms:       2

     Orbital Basis Set                                         aug-SZV-MOLOPT-ae

       Number of orbital shell sets:                                           2
       Number of orbital shells:                                               5
       Number of primitive Cartesian functions:                               13
       Number of Cartesian basis functions:                                    9
       Number of spherical basis functions:                                    9
       Norm type:                                                              2

       Normalised Cartesian orbitals:

                        Set   Shell   Orbital            Exponent    Coefficient

                          1       1    1s                0.123000       0.000000
                                                         0.245881       0.059902
                                                         0.536420       0.265853
                                                         1.235135       0.208956
                                                         3.210345      -0.057750
                                                        10.329320      -0.192968
                                                        52.187762      -0.183398

                          1       2    2s                0.123000      -0.253465
                                                         0.245881       0.187097
                                                         0.536420       0.063592
                                                         1.235135       0.074938
                                                         3.210345       0.000000
                                                        10.329320       0.000000
                                                        52.187762       0.000000

                          1       3    2px               0.123000       0.000000
                                                         0.245881       0.025102
                                                         0.536420       0.278668
                                                         1.235135       0.775885
                                                         3.210345       1.065175
                                                        10.329320       0.994565
                                                        52.187762       0.751716
                          1       3    2py               0.123000       0.000000
                                                         0.245881       0.025102
                                                         0.536420       0.278668
                                                         1.235135       0.775885
                                                         3.210345       1.065175
                                                        10.329320       0.994565
                                                        52.187762       0.751716
                          1       3    2pz               0.123000       0.000000
                                                         0.245881       0.025102
                                                         0.536420       0.278668
                                                         1.235135       0.775885
                                                         3.210345       1.065175
                                                        10.329320       0.994565
                                                        52.187762       0.751716

                          1       4    3px               0.123000       0.048536
                                                         0.245881       0.257066
                                                         0.536420      -0.539300
                                                         1.235135      -0.153605
                                                         3.210345       0.000000
                                                        10.329320       0.000000
                                                        52.187762       0.000000
                          1       4    3py               0.123000       0.048536
                                                         0.245881       0.257066
                                                         0.536420      -0.539300
                                                         1.235135      -0.153605
                                                         3.210345       0.000000
                                                        10.329320       0.000000
                                                        52.187762       0.000000
                          1       4    3pz               0.123000       0.048536
                                                         0.245881       0.257066
                                                         0.536420      -0.539300
                                                         1.235135      -0.153605
                                                         3.210345       0.000000
                                                        10.329320       0.000000
                                                        52.187762       0.000000

                          2       1    1s             1355.584234       1.459053
                                                       248.544885       2.202176
                                                        69.533902       2.892385
                                                        23.886772       2.853580
                                                         9.275933       1.577736
                                                         3.820341       0.253831

     RI Auxiliary Basis Set             RI_aug-SZV-MOLOPT-ae_N_RI_039_s_p_d_f_g_

       Number of orbital shell sets:                                          13
       Number of orbital shells:                                              13
       Number of primitive Cartesian functions:                               13
       Number of Cartesian basis functions:                                   45
       Number of spherical basis functions:                                   39
       Norm type:                                                              2

       Normalised Cartesian orbitals:

                        Set   Shell   Orbital            Exponent    Coefficient

                          1       1    6px               0.339985       0.370054
                          1       1    6py               0.339985       0.370054
                          1       1    6pz               0.339985       0.370054

                          2       1    1s                0.360717       0.331730

                          3       1   10dx2              0.387676       0.313495
                          3       1   10dxy              0.387676       0.542989
                          3       1   10dxz              0.387676       0.542989
                          3       1   10dy2              0.387676       0.313495
                          3       1   10dyz              0.387676       0.542989
                          3       1   10dz2              0.387676       0.313495

                          4       1    2s                1.025597       0.726344

                          5       1   11dx2              1.429532       3.076087
                          5       1   11dxy              1.429532       5.327939
                          5       1   11dxz              1.429532       5.327939
                          5       1   11dy2              1.429532       3.076087
                          5       1   11dyz              1.429532       5.327939
                          5       1   11dz2              1.429532       3.076087

                          6       1    7px               1.889939       3.158637
                          6       1    7py               1.889939       3.158637
                          6       1    7pz               1.889939       3.158637

                          7       1   13fx3              2.090453       7.735623
                          7       1   13fx2y             2.090453      17.297380
                          7       1   13fx2z             2.090453      17.297380
                          7       1   13fxy2             2.090453      17.297380
                          7       1   13fxyz             2.090453      29.959941
                          7       1   13fxz2             2.090453      17.297380
                          7       1   13fy3              2.090453       7.735623
                          7       1   13fy2z             2.090453      17.297380
                          7       1   13fyz2             2.090453      17.297380
                          7       1   13fz3              2.090453       7.735623

                          8       1    3s                4.532550       2.213946

                          9       1   12dx2              4.657163      24.300880
                          9       1   12dxy              4.657163      42.090359
                          9       1   12dxz              4.657163      42.090359
                          9       1   12dy2              4.657163      24.300880
                          9       1   12dyz              4.657163      42.090359
                          9       1   12dz2              4.657163      24.300880

                         10       1    8px               7.383619      17.349090
                         10       1    8py               7.383619      17.349090
                         10       1    8pz               7.383619      17.349090

                         11       1    4s               28.138782       8.707411

                         12       1    9px              31.263869     105.376434
                         12       1    9py              31.263869     105.376434
                         12       1    9pz              31.263869     105.376434

                         13       1    5s              157.923413      31.750092

       Atomic covalent radius [Angstrom]:                                  0.730

       Atomic van der Waals radius [Angstrom]:                             1.520

     The atoms of this atomic kind are PAW atoms (GAPW):
       Hard Gaussian function radius:                                      1.512
       Rho0 radius:                                                        1.512
       Maximum GTO radius used for PAW projector construction:            24.566

     GAPW Soft Basis Set                                  aug-SZV-MOLOPT-ae_soft

       Number of orbital shell sets:                                           2
       Number of orbital shells:                                               5
       Number of primitive Cartesian functions:                                6
       Number of Cartesian basis functions:                                    9
       Number of spherical basis functions:                                    9
       Norm type:                                                              2

       Normalised Cartesian orbitals:

                        Set   Shell   Orbital            Exponent    Coefficient

                          1       1    1s                0.123000       0.000000
                                                         0.245881       0.059902
                                                         0.536420       0.265853
                                                         1.235135       0.208956
                                                         3.210345      -0.057750

                          1       2    2s                0.123000      -0.253465
                                                         0.245881       0.187097
                                                         0.536420       0.063592
                                                         1.235135       0.074938
                                                         3.210345       0.000000

                          1       3    2px               0.123000       0.000000
                                                         0.245881       0.025102
                                                         0.536420       0.278668
                                                         1.235135       0.775885
                                                         3.210345       1.065175
                          1       3    2py               0.123000       0.000000
                                                         0.245881       0.025102
                                                         0.536420       0.278668
                                                         1.235135       0.775885
                                                         3.210345       1.065175
                          1       3    2pz               0.123000       0.000000
                                                         0.245881       0.025102
                                                         0.536420       0.278668
                                                         1.235135       0.775885
                                                         3.210345       1.065175

                          1       4    3px               0.123000       0.048536
                                                         0.245881       0.257066
                                                         0.536420      -0.539300
                                                         1.235135      -0.153605
                                                         3.210345       0.000000
                          1       4    3py               0.123000       0.048536
                                                         0.245881       0.257066
                                                         0.536420      -0.539300
                                                         1.235135      -0.153605
                                                         3.210345       0.000000
                          1       4    3pz               0.123000       0.048536
                                                         0.245881       0.257066
                                                         0.536420      -0.539300
                                                         1.235135      -0.153605
                                                         3.210345       0.000000

                          2       1    1s                3.820341       0.253831

     AE Potential information for                                            ALL

       Description:                                       All-electron potential
                                          Krack, Parrinello, PCCP 2, 2105 (2000)

       Gaussian exponent of the core charge distribution:               8.154466
       Electronic configuration (s p d ...):                           4   4   0


 MOLECULE KIND INFORMATION


 All atoms are their own molecule, skipping detailed information


 TOTAL NUMBERS AND MAXIMUM NUMBERS

  Total number of            - Atomic kinds:                                   1
                             - Atoms:                                          2
                             - Shell sets:                                     4
                             - Shells:                                        10
                             - Primitive Cartesian functions:                 26
                             - Cartesian basis functions:                     18
                             - Spherical basis functions:                     18

  Maximum angular momentum of the orbital basis functions:                     1


 MODULE QUICKSTEP: ATOMIC COORDINATES IN ANGSTROM

   Atom Kind Element         X             Y             Z       Z(eff)     Mass
      1    1 O     8     15.603900     15.000000     15.000000   8.0000  15.9994
      2    1 O     8     14.396100     15.000000     15.000000   8.0000  15.9994



 SCF PARAMETERS         Density guess:                                    ATOMIC
                        --------------------------------------------------------
                        max_scf:                                             500
                        max_scf_history:                                       0
                        max_diis:                                              4
                        --------------------------------------------------------
                        eps_scf:                                        1.00E-06
                        eps_scf_history:                                0.00E+00
                        eps_diis:                                       1.00E-01
                        eps_eigval:                                     1.00E-05
                        --------------------------------------------------------
                        level_shift [a.u.]:                             0.000000
                        added MOs                                        10    0
                        --------------------------------------------------------
                        Mixing method:                            BROYDEN_MIXING
                                                charge density mixing in g-space
                        --------------------------------------------------------
                        No outer SCF

 PW_GRID| Information for grid number                                          1
 PW_GRID| Grid distributed over                                    24 processors
 PW_GRID| Real space group dimensions                                    24    1
 PW_GRID| the grid is blocked:                                                NO
 PW_GRID| Cutoff [a.u.]                                                    250.0
 PW_GRID| spherical cutoff:                                                   NO
 PW_GRID|   Bounds   1           -202     202                Points:         405
 PW_GRID|   Bounds   2           -202     202                Points:         405
 PW_GRID|   Bounds   3           -202     202                Points:         405
 PW_GRID| Volume element (a.u.^3)  0.2743E-02     Volume (a.u.^3)    182205.0337
 PW_GRID| Grid span                                                    FULLSPACE
 PW_GRID|   Distribution                         Average         Max         Min
 PW_GRID|   G-Vectors                          2767921.9     2768175     2767770
 PW_GRID|   G-Rays                                6834.4        6835        6834
 PW_GRID|   Real Space Points                  2767921.9     2788425     2624400

 PW_GRID| Information for grid number                                          2
 PW_GRID| Number of the reference grid                                         1
 PW_GRID| Grid distributed over                                    24 processors
 PW_GRID| Real space group dimensions                                    24    1
 PW_GRID| the grid is blocked:                                                NO
 PW_GRID| Cutoff [a.u.]                                                     83.3
 PW_GRID| spherical cutoff:                                                   NO
 PW_GRID|   Bounds   1           -120     119                Points:         240
 PW_GRID|   Bounds   2           -120     119                Points:         240
 PW_GRID|   Bounds   3           -120     119                Points:         240
 PW_GRID| Volume element (a.u.^3)  0.1318E-01     Volume (a.u.^3)    182205.0337
 PW_GRID| Grid span                                                    FULLSPACE
 PW_GRID|   Distribution                         Average         Max         Min
 PW_GRID|   G-Vectors                           576000.0      576240      575760
 PW_GRID|   G-Rays                                2400.0        2401        2399
 PW_GRID|   Real Space Points                   576000.0      576000      576000

 PW_GRID| Information for grid number                                          3
 PW_GRID| Number of the reference grid                                         1
 PW_GRID| Grid distributed over                                    24 processors
 PW_GRID| Real space group dimensions                                    24    1
 PW_GRID| the grid is blocked:                                                NO
 PW_GRID| Cutoff [a.u.]                                                     27.8
 PW_GRID| spherical cutoff:                                                   NO
 PW_GRID|   Bounds   1            -67      67                Points:         135
 PW_GRID|   Bounds   2            -67      67                Points:         135
 PW_GRID|   Bounds   3            -67      67                Points:         135
 PW_GRID| Volume element (a.u.^3)  0.7406E-01     Volume (a.u.^3)    182205.0337
 PW_GRID| Grid span                                                    FULLSPACE
 PW_GRID|   Distribution                         Average         Max         Min
 PW_GRID|   G-Vectors                           102515.6      102735      102330
 PW_GRID|   G-Rays                                 759.4         761         758
 PW_GRID|   Real Space Points                   102515.6      109350       91125

 PW_GRID| Information for grid number                                          4
 PW_GRID| Number of the reference grid                                         1
 PW_GRID| Grid distributed over                                    24 processors
 PW_GRID| Real space group dimensions                                    24    1
 PW_GRID| the grid is blocked:                                                NO
 PW_GRID| Cutoff [a.u.]                                                      9.3
 PW_GRID| spherical cutoff:                                                   NO
 PW_GRID|   Bounds   1            -40      39                Points:          80
 PW_GRID|   Bounds   2            -40      39                Points:          80
 PW_GRID|   Bounds   3            -40      39                Points:          80
 PW_GRID| Volume element (a.u.^3)  0.3559         Volume (a.u.^3)    182205.0337
 PW_GRID| Grid span                                                    FULLSPACE
 PW_GRID|   Distribution                         Average         Max         Min
 PW_GRID|   G-Vectors                            21333.3       21360       21280
 PW_GRID|   G-Rays                                 266.7         267         266
 PW_GRID|   Real Space Points                    21333.3       25600       19200

 POISSON| Solver                                                         WAVELET
 POISSON| Wavelet| Scaling function                                           40
 POISSON| Periodicity                                                       NONE

 RS_GRID| Information for grid number                                          1
 RS_GRID|   Bounds   1           -202     202                Points:         405
 RS_GRID|   Bounds   2           -202     202                Points:         405
 RS_GRID|   Bounds   3           -202     202                Points:         405
 RS_GRID| Real space distribution over                                  4 groups
 RS_GRID| Real space distribution along direction                              2
 RS_GRID| Border size                                                         33
 RS_GRID| Real space distribution over                                  6 groups
 RS_GRID| Real space distribution along direction                              3
 RS_GRID| Border size                                                         33
 RS_GRID|   Distribution                         Average         Max         Min
 RS_GRID|   Planes                                 167.2         168         167
 RS_GRID|   Distribution                         Average         Max         Min
 RS_GRID|   Planes                                 133.5         134         133

 RS_GRID| Information for grid number                                          2
 RS_GRID|   Bounds   1           -120     119                Points:         240
 RS_GRID|   Bounds   2           -120     119                Points:         240
 RS_GRID|   Bounds   3           -120     119                Points:         240
 RS_GRID| Real space distribution over                                  4 groups
 RS_GRID| Real space distribution along direction                              2
 RS_GRID| Border size                                                         32
 RS_GRID| Real space distribution over                                  6 groups
 RS_GRID| Real space distribution along direction                              3
 RS_GRID| Border size                                                         32
 RS_GRID|   Distribution                         Average         Max         Min
 RS_GRID|   Planes                                 124.0         124         124
 RS_GRID|   Distribution                         Average         Max         Min
 RS_GRID|   Planes                                 104.0         104         104

 RS_GRID| Information for grid number                                          3
 RS_GRID|   Bounds   1            -67      67                Points:         135
 RS_GRID|   Bounds   2            -67      67                Points:         135
 RS_GRID|   Bounds   3            -67      67                Points:         135
 RS_GRID| Real space fully replicated
 RS_GRID| Group size                                                           1

 RS_GRID| Information for grid number                                          4
 RS_GRID|   Bounds   1            -40      39                Points:          80
 RS_GRID|   Bounds   2            -40      39                Points:          80
 RS_GRID|   Bounds   3            -40      39                Points:          80
 RS_GRID| Real space fully replicated
 RS_GRID| Group size                                                           1

  HFX_INFO| Replica ID:                                                        1
  HFX_INFO| FRACTION:                                               0.2500000000
  HFX_INFO| Interaction Potential:                                       COULOMB
  HFX_INFO| EPS_SCHWARZ:                                                 1.0E-10
  HFX_INFO| EPS_SCHWARZ_FORCES                                           1.0E-08
  HFX_INFO| EPS_STORAGE_SCALING:                                         1.0E+00
  HFX_INFO| NBINS:                                                            64
  HFX_INFO| BLOCK_SIZE:                                                        1
  HFX_INFO| Number of periodic shells considered:                           NONE
  HFX_INFO| Number of periodic cells considered:                            NONE

 
 RI-RPA| using GPW style
 

 OVERLAP MATRIX CONDITION NUMBER
 1-Norm Condition Number (Estimate)
   CN : |A|*|A^-1|:  3.108E+000 *  9.885E+001   = 3.072E+002  Log(1-CN):  2.4874
 1-Norm and 2-Norm Condition Numbers using Diagonalization
   CN : |A|*|A^-1|:  3.108E+000 *  9.885E+001   = 3.072E+002  Log(1-CN):  2.4874
   CN : max/min ev:  2.566E+000 /  1.397E-002   = 1.836E+002  Log(2-CN):  2.2639

 Number of electrons:                                                         16
 Number of occupied orbitals:                                                  8
 Number of molecular orbitals:                                                18

 Number of orbital functions:                                                 18
 Number of independent orbital functions:                                     18

 Extrapolation method: initial_guess

 Atomic guess: The first density matrix is obtained in terms of atomic orbitals
               and electronic configurations assigned to each atomic kind

 Guess for atomic kind: O

 Electronic structure
    Total number of core electrons                                          0.00
    Total number of valence electrons                                       8.00
    Total number of electrons                                               8.00
    Multiplicity                                                   not specified
    S      2.00  2.00
    P      4.00


 *******************************************************************************
                  Iteration          Convergence                     Energy [au]
 *******************************************************************************
                          1        0.735249                     -74.156692399509
                          2        0.374970                     -74.229519281434
                          3        0.137476E-02                 -74.265323889138
                          4        0.125117E-03                 -74.265324305080
                          5        0.240576E-05                 -74.265324309459
                          6        0.135447E-05                 -74.265324309460
                          7        0.538171E-07                 -74.265324309461

 Energy components [Hartree]           Total Energy ::          -74.265324309461
                                        Band Energy ::          -41.262202594008
                                     Kinetic Energy ::           72.991524336317
                                   Potential Energy ::         -147.256848645778
                                      Virial (-V/T) ::            2.017451340888
                                        Core Energy ::         -102.038650666845
                                          XC Energy ::           -7.668930692176
                                     Coulomb Energy ::           35.442257049561

 Orbital energies  State     L     Occupation   Energy[a.u.]          Energy[eV]

                       1     0          2.000     -18.982629         -516.543598
                       2     0          2.000      -0.922184          -25.093913

                       1     1          4.000      -0.363144           -9.881653


 Total Electron Density at R=0:                                       265.214148
 Re-scaling the density matrix to get the right number of electrons
                  # Electrons              Trace(P)               Scaling factor
                           16                16.000                        1.000


 SCF WAVEFUNCTION OPTIMIZATION

  Step     Update method      Time    Convergence         Total energy    Change
  ------------------------------------------------------------------------------

  HFX_MEM_INFO| Est. max. program size before HFX [MiB]:                    2120
  HFX_MEM_INFO| Number of cart. primitive ERI's calculated:              7291851
  HFX_MEM_INFO| Number of sph. ERI's calculated:                           39366
  HFX_MEM_INFO| Number of sph. ERI's stored in-core:                       39366
  HFX_MEM_INFO| Number of sph. ERI's stored on disk:                           0
  HFX_MEM_INFO| Number of sph. ERI's calculated on the fly:                    0
  HFX_MEM_INFO| Total memory consumption ERI's RAM [MiB]:                      1
  HFX_MEM_INFO| Whereof max-vals [MiB]:                                        1
  HFX_MEM_INFO| Total compression factor ERI's RAM:                         0.35
  HFX_MEM_INFO| Total memory consumption ERI's disk [MiB]:                     0
  HFX_MEM_INFO| Total compression factor ERI's disk:                        0.00
  HFX_MEM_INFO| Size of density/Fock matrix [MiB]:                             0
  HFX_MEM_INFO| Size of buffers [MiB]:                                         0
  HFX_MEM_INFO| Est. max. program size after HFX  [MiB]:                    2629

     1 NoMix/Diag. 0.10E+00    6.2     0.74505831      -150.1151808056 -1.50E+02
     2 Broy./Diag. 0.10E+00    4.7     0.01546365      -149.6555194455  4.60E-01
     3 Broy./Diag. 0.10E+00    4.7     0.05894792      -149.6804288465 -2.49E-02
     4 Broy./Diag. 0.10E+00    4.8     0.01137167      -149.7175307826 -3.71E-02
     5 Broy./Diag. 0.10E+00    4.8     0.00195415      -149.7108092751  6.72E-03
     6 Broy./Diag. 0.10E+00    5.0     0.00747093      -149.7283655166 -1.76E-02
     7 Broy./Diag. 0.10E+00    5.1     0.00211574      -149.7178532424  1.05E-02
     8 Broy./Diag. 0.10E+00    5.1     0.00163144      -149.7174568955  3.96E-04
     9 Broy./Diag. 0.10E+00    5.3     0.00104575      -149.7160951742  1.36E-03
    10 Broy./Diag. 0.10E+00    5.3     0.00049963      -149.7157554421  3.40E-04
    11 Broy./Diag. 0.10E+00    5.3     0.00054988      -149.7158372858 -8.18E-05
    12 Broy./Diag. 0.10E+00    5.2     0.00011575      -149.7167371227 -9.00E-04
    13 Broy./Diag. 0.10E+00    5.3     0.00062561      -149.7138152093  2.92E-03
    14 Broy./Diag. 0.10E+00    5.3     0.00011132      -149.7133223084  4.93E-04
    15 Broy./Diag. 0.10E+00    5.3     0.00014098      -149.7135813915 -2.59E-04
    16 Broy./Diag. 0.10E+00    5.3     0.00004300      -149.7137880093 -2.07E-04
    17 Broy./Diag. 0.10E+00    5.3     0.00002568      -149.7136821592  1.06E-04
    18 Broy./Diag. 0.10E+00    5.3     0.00003346      -149.7134792486  2.03E-04
    19 Broy./Diag. 0.10E+00    5.4     0.00001411      -149.7133446305  1.35E-04
    20 Broy./Diag. 0.10E+00    5.3     0.00003890      -149.7132294032  1.15E-04
    21 Broy./Diag. 0.10E+00    5.3     0.00002707      -149.7132678307 -3.84E-05
    22 Broy./Diag. 0.10E+00    5.3     0.00002379      -149.7133002005 -3.24E-05
    23 Broy./Diag. 0.10E+00    5.3     0.00002763      -149.7133107309 -1.05E-05
    24 Broy./Diag. 0.10E+00    5.4     0.00001346      -149.7132890400  2.17E-05
    25 Broy./Diag. 0.10E+00    5.4     0.00000660      -149.7132901393 -1.10E-06
    26 Broy./Diag. 0.10E+00    5.3     0.00002062      -149.7133363635 -4.62E-05
    27 Broy./Diag. 0.10E+00    5.3     0.00001188      -149.7133439684 -7.60E-06
    28 Broy./Diag. 0.10E+00    5.2     0.00000769      -149.7132885490  5.54E-05
    29 Broy./Diag. 0.10E+00    5.3     0.00001641      -149.7132284713  6.01E-05
    30 Broy./Diag. 0.10E+00    5.3     0.00002142      -149.7132053468  2.31E-05
    31 Broy./Diag. 0.10E+00    5.3     0.00003314      -149.7132098920 -4.55E-06
    32 Broy./Diag. 0.10E+00    5.4     0.00003870      -149.7132203593 -1.05E-05
    33 Broy./Diag. 0.10E+00    5.3     0.00007447      -149.7132192226  1.14E-06
    34 Broy./Diag. 0.10E+00    5.4     0.00006843      -149.7132385913 -1.94E-05
    35 Broy./Diag. 0.10E+00    5.3     0.00005221      -149.7132587837 -2.02E-05
    36 Broy./Diag. 0.10E+00    5.3     0.00007009      -149.7132598081 -1.02E-06
    37 Broy./Diag. 0.10E+00    5.3     0.00011447      -149.7132584160  1.39E-06
    38 Broy./Diag. 0.10E+00    5.3     0.00019011      -149.7132620272 -3.61E-06
    39 Broy./Diag. 0.10E+00    5.3     0.00031096      -149.7132642034 -2.18E-06
    40 Broy./Diag. 0.10E+00    5.3     0.00051607      -149.7132598331  4.37E-06
    41 Broy./Diag. 0.10E+00    5.4     0.00085189      -149.7132548349  5.00E-06
    42 Broy./Diag. 0.10E+00    5.3     0.00140848      -149.7132498367  5.00E-06
    43 Broy./Diag. 0.10E+00    5.3     0.00231979      -149.7132503671 -5.30E-07
    44 Broy./Diag. 0.10E+00    5.3     0.00380383      -149.7132562017 -5.83E-06
    45 Broy./Diag. 0.10E+00    5.3     0.00625247      -149.7132671452 -1.09E-05
    46 Broy./Diag. 0.10E+00    5.3     0.01025298      -149.7132543116  1.28E-05
    47 Broy./Diag. 0.10E+00    5.3     0.01685973      -149.7132691902 -1.49E-05
    48 Broy./Diag. 0.10E+00    5.3     0.02761011      -149.7132898975 -2.07E-05
    49 Broy./Diag. 0.10E+00    5.3     0.04487662      -149.7132076327  8.23E-05
    50 Broy./Diag. 0.10E+00    5.3     0.07128146      -149.7129667321  2.41E-04
    51 Broy./Diag. 0.10E+00    5.3     0.10682368      -149.7123956815  5.71E-04
    52 Broy./Diag. 0.10E+00    5.3     0.13912612      -149.7110293799  1.37E-03
    53 Broy./Diag. 0.10E+00    5.3     0.18446084      -149.7078856528  3.14E-03
    54 Broy./Diag. 0.10E+00    5.3     0.24634644      -149.7018030201  6.08E-03
    55 Broy./Diag. 0.10E+00    5.3     0.23773284      -149.6928667102  8.94E-03
    56 Broy./Diag. 0.10E+00    5.3     0.17743852      -149.6834139007  9.45E-03
    57 Broy./Diag. 0.10E+00    5.3     0.11217522      -149.6758092655  7.60E-03
    58 Broy./Diag. 0.10E+00    5.4     0.09960933      -149.6706493631  5.16E-03
    59 Broy./Diag. 0.10E+00    5.3     0.07986638      -149.6675183612  3.13E-03
    60 Broy./Diag. 0.10E+00    5.3     0.06065966      -149.6657310155  1.79E-03
    61 Broy./Diag. 0.10E+00    5.3     0.04478381      -149.6647307433  1.00E-03
    62 Broy./Diag. 0.10E+00    5.3     0.03222561      -149.6642094326  5.21E-04
    63 Broy./Diag. 0.10E+00    5.3     0.01958809      -149.6664068788 -2.20E-03
    64 Broy./Diag. 0.10E+00    5.3     0.01384775      -149.6602588703  6.15E-03
    65 Broy./Diag. 0.10E+00    5.3     0.01289894      -149.6523952244  7.86E-03
    66 Broy./Diag. 0.10E+00    5.3     0.09466920      -149.8055420852 -1.53E-01
    67 Broy./Diag. 0.10E+00    5.3     0.19714864      -149.9587591825 -1.53E-01
    68 Broy./Diag. 0.10E+00    5.4     0.20437797      -150.0416993270 -8.29E-02
    69 Broy./Diag. 0.10E+00    5.3     0.12255885      -149.9340616209  1.08E-01
    70 Broy./Diag. 0.10E+00    5.3     0.07821652      -149.7783617616  1.56E-01
    71 Broy./Diag. 0.10E+00    5.3     0.07536330      -149.7474999712  3.09E-02
    72 Broy./Diag. 0.10E+00    5.3     0.00645576      -149.7265321190  2.10E-02
    73 Broy./Diag. 0.10E+00    5.3     0.13116689      -149.7042168974  2.23E-02
    74 Broy./Diag. 0.10E+00    5.3     0.11682369      -149.6687056807  3.55E-02
    75 Broy./Diag. 0.10E+00    5.4     0.06621487      -149.7097650679 -4.11E-02
    76 Broy./Diag. 0.10E+00    5.3     0.17795470      -149.6554690993  5.43E-02
    77 Broy./Diag. 0.10E+00    5.2     0.19489940      -149.5913200503  6.41E-02
    78 Broy./Diag. 0.10E+00    5.3     0.02417416      -149.6243840935 -3.31E-02
    79 Broy./Diag. 0.10E+00    5.2     0.06047968      -149.6040715669  2.03E-02
    80 Broy./Diag. 0.10E+00    5.2     0.02745842      -149.6440671104 -4.00E-02
    81 Broy./Diag. 0.10E+00    5.3     0.05570700      -149.6491930843 -5.13E-03
    82 Broy./Diag. 0.10E+00    5.3     0.07626526      -149.6611959545 -1.20E-02
    83 Broy./Diag. 0.10E+00    5.3     0.19004702      -149.6987014889 -3.75E-02
    84 Broy./Diag. 0.10E+00    5.2     0.23536338      -149.7284947438 -2.98E-02
    85 Broy./Diag. 0.10E+00    5.3     0.13764954      -149.7556725656 -2.72E-02
    86 Broy./Diag. 0.10E+00    5.3     0.14455524      -149.7773592537 -2.17E-02
    87 Broy./Diag. 0.10E+00    5.3     0.10573595      -149.8082337213 -3.09E-02
    88 Broy./Diag. 0.10E+00    5.3     0.07929770      -149.8280090033 -1.98E-02
    89 Broy./Diag. 0.10E+00    5.3     0.06175426      -149.8288620455 -8.53E-04
    90 Broy./Diag. 0.10E+00    5.3     0.34283894      -149.6165743121  2.12E-01
    91 Broy./Diag. 0.10E+00    5.3     0.30223740      -149.5869895528  2.96E-02
    92 Broy./Diag. 0.10E+00    5.3     0.16956271      -149.6280417334 -4.11E-02
    93 Broy./Diag. 0.10E+00    5.3     0.09299117      -149.6846911956 -5.66E-02
    94 Broy./Diag. 0.10E+00    5.3     0.06193153      -149.6656444299  1.90E-02
    95 Broy./Diag. 0.10E+00    5.3     0.04088967      -149.6812898470 -1.56E-02
    96 Broy./Diag. 0.10E+00    5.3     0.02534483      -149.6558782036  2.54E-02
    97 Broy./Diag. 0.10E+00    5.3     0.05212258      -149.7269060847 -7.10E-02
    98 Broy./Diag. 0.10E+00    5.3     0.07002415      -149.7224014632  4.50E-03
    99 Broy./Diag. 0.10E+00    5.3     0.07300267      -149.7129763122  9.43E-03
   100 Broy./Diag. 0.10E+00    5.3     0.07434739      -149.7135392088 -5.63E-04
   101 Broy./Diag. 0.10E+00    5.2     0.02459604      -149.7364992745 -2.30E-02
   102 Broy./Diag. 0.10E+00    5.3     0.01601731      -149.7599773180 -2.35E-02
   103 Broy./Diag. 0.10E+00    5.3     0.01909652      -149.7700167317 -1.00E-02
   104 Broy./Diag. 0.10E+00    5.3     0.03450061      -149.7550524716  1.50E-02
   105 Broy./Diag. 0.10E+00    5.3     0.00193020      -149.7414718610  1.36E-02
   106 Broy./Diag. 0.10E+00    5.3     0.00371880      -149.7376097927  3.86E-03
   107 Broy./Diag. 0.10E+00    5.3     0.00183171      -149.7326591935  4.95E-03
   108 Broy./Diag. 0.10E+00    5.4     0.00575688      -149.7255835214  7.08E-03
   109 Broy./Diag. 0.10E+00    5.3     0.00064830      -149.7230724450  2.51E-03
   110 Broy./Diag. 0.10E+00    5.3     0.00475434      -149.7225521209  5.20E-04
   111 Broy./Diag. 0.10E+00    5.3     0.00103357      -149.7220411014  5.11E-04
   112 Broy./Diag. 0.10E+00    5.3     0.00135218      -149.7182050438  3.84E-03
   113 Broy./Diag. 0.10E+00    5.3     0.00208223      -149.7164949940  1.71E-03
   114 Broy./Diag. 0.10E+00    5.3     0.00266583      -149.7164437679  5.12E-05
   115 Broy./Diag. 0.10E+00    5.3     0.00777236      -149.7162718765  1.72E-04
   116 Broy./Diag. 0.10E+00    5.3     0.01370246      -149.7155350809  7.37E-04
   117 Broy./Diag. 0.10E+00    5.3     0.02160111      -149.7154644666  7.06E-05
   118 Broy./Diag. 0.10E+00    5.3     0.03640355      -149.7150741057  3.90E-04
   119 Broy./Diag. 0.10E+00    5.3     0.06004868      -149.7151363403 -6.22E-05
   120 Broy./Diag. 0.10E+00    5.3     0.09755558      -149.7148242551  3.12E-04
   121 Broy./Diag. 0.10E+00    5.3     0.14754862      -149.7136434373  1.18E-03
   122 Broy./Diag. 0.10E+00    5.3     0.18750194      -149.7113194108  2.32E-03
   123 Broy./Diag. 0.10E+00    5.3     0.17941546      -149.7064363972  4.88E-03
   124 Broy./Diag. 0.10E+00    5.3     0.23338810      -149.6995145706  6.92E-03
   125 Broy./Diag. 0.10E+00    5.3     0.21895645      -149.6894425544  1.01E-02
   126 Broy./Diag. 0.10E+00    5.3     0.16752002      -149.6808191050  8.62E-03
   127 Broy./Diag. 0.10E+00    5.4     0.11401496      -149.6741302068  6.69E-03
   128 Broy./Diag. 0.10E+00    5.3     0.07361640      -149.6704606815  3.67E-03
   129 Broy./Diag. 0.10E+00    5.3     0.05474934      -149.6684373247  2.02E-03
   130 Broy./Diag. 0.10E+00    5.3     0.04171091      -149.6673609415  1.08E-03
   131 Broy./Diag. 0.10E+00    5.3     0.02799579      -149.6685284365 -1.17E-03
   132 Broy./Diag. 0.10E+00    5.3     0.02545957      -149.6655358079  2.99E-03
   133 Broy./Diag. 0.10E+00    5.3     0.04691306      -149.6751077021 -9.57E-03
   134 Broy./Diag. 0.10E+00    5.3     0.08543699      -149.7086726012 -3.36E-02
   135 Broy./Diag. 0.10E+00    5.4     0.14003969      -149.7455438057 -3.69E-02
   136 Broy./Diag. 0.10E+00    5.3     0.21587415      -149.7598519263 -1.43E-02
   137 Broy./Diag. 0.10E+00    5.3     0.17573117      -149.7173060818  4.25E-02
   138 Broy./Diag. 0.10E+00    5.3     0.11992888      -149.7335075559 -1.62E-02
   139 Broy./Diag. 0.10E+00    5.3     0.06962524      -149.7384708641 -4.96E-03

 *** WARNING in pw/ps_wavelet_methods.F:238 :: Density non-zero on the ***
 *** edges of the unit cell: wrong results in WAVELET solver           ***

   140 Broy./Diag. 0.10E+00    5.3     0.06051581      -149.7660553815 -2.76E-02

 *** WARNING in pw/ps_wavelet_methods.F:238 :: Density non-zero on the ***
 *** edges of the unit cell: wrong results in WAVELET solver           ***

   141 Broy./Diag. 0.10E+00    5.3     0.05781503      -149.7089176328  5.71E-02

 *** WARNING in pw/ps_wavelet_methods.F:238 :: Density non-zero on the ***
 *** edges of the unit cell: wrong results in WAVELET solver           ***

   142 Broy./Diag. 0.10E+00    5.3     0.07063464      -149.7055490801  3.37E-03

 *** WARNING in pw/ps_wavelet_methods.F:238 :: Density non-zero on the ***
 *** edges of the unit cell: wrong results in WAVELET solver           ***

   143 Broy./Diag. 0.10E+00    5.4     0.24065857      -149.6609064347  4.46E-02

 *** WARNING in pw/ps_wavelet_methods.F:238 :: Density non-zero on the ***
 *** edges of the unit cell: wrong results in WAVELET solver           ***

   144 Broy./Diag. 0.10E+00    5.3     0.33958064      -149.7528738571 -9.20E-02

 *** WARNING in pw/ps_wavelet_methods.F:238 :: Density non-zero on the ***
 *** edges of the unit cell: wrong results in WAVELET solver           ***

   145 Broy./Diag. 0.10E+00    5.3     0.19190296      -149.8086365129 -5.58E-02

 *** WARNING in pw/ps_wavelet_methods.F:238 :: Density non-zero on the ***
 *** edges of the unit cell: wrong results in WAVELET solver           ***

   146 Broy./Diag. 0.10E+00    5.3     0.02162867      -149.8540462956 -4.54E-02

 *** WARNING in pw/ps_wavelet_methods.F:238 :: Density non-zero on the ***
 *** edges of the unit cell: wrong results in WAVELET solver           ***

   147 Broy./Diag. 0.10E+00    5.3     0.01623300      -149.8800910728 -2.60E-02

 *** WARNING in pw/ps_wavelet_methods.F:238 :: Density non-zero on the ***
 *** edges of the unit cell: wrong results in WAVELET solver           ***

   148 Broy./Diag. 0.10E+00    5.3     0.01068764      -149.8965890482 -1.65E-02

 *** WARNING in pw/ps_wavelet_methods.F:238 :: Density non-zero on the ***
 *** edges of the unit cell: wrong results in WAVELET solver           ***

   149 Broy./Diag. 0.10E+00    5.3     0.00431784      -149.8969596514 -3.71E-04
   150 Broy./Diag. 0.10E+00    5.3     0.06131477      -149.8203684694  7.66E-02
   151 Broy./Diag. 0.10E+00    5.3     0.19832663      -149.8023954000  1.80E-02
   152 Broy./Diag. 0.10E+00    5.3     0.27726898      -149.8171865288 -1.48E-02
   153 Broy./Diag. 0.10E+00    5.4     0.25726150      -149.8099895375  7.20E-03
   154 Broy./Diag. 0.10E+00    5.3     0.19992265      -149.7983960756  1.16E-02
   155 Broy./Diag. 0.10E+00    5.3     0.16865789      -149.7852867539  1.31E-02
   156 Broy./Diag. 0.10E+00    5.3     0.06203396      -149.7737460216  1.15E-02
   157 Broy./Diag. 0.10E+00    5.3     0.07544038      -149.7466377415  2.71E-02
   158 Broy./Diag. 0.10E+00    5.3     0.12070645      -149.7506689615 -4.03E-03
   159 Broy./Diag. 0.10E+00    5.3     0.13160589      -149.7573076405 -6.64E-03
   160 Broy./Diag. 0.10E+00    5.3     0.11189263      -149.7501336759  7.17E-03
   161 Broy./Diag. 0.10E+00    5.4     0.18104569      -149.7363820163  1.38E-02
   162 Broy./Diag. 0.10E+00    5.3     0.22068548      -149.7313341668  5.05E-03
   163 Broy./Diag. 0.10E+00    5.3     0.12956863      -149.7411121418 -9.78E-03
   164 Broy./Diag. 0.10E+00    5.3     0.03834631      -149.7548831173 -1.38E-02
   165 Broy./Diag. 0.10E+00    5.3     0.06364934      -149.7740844155 -1.92E-02
   166 Broy./Diag. 0.10E+00    5.3     0.06745153      -149.7827858320 -8.70E-03
   167 Broy./Diag. 0.10E+00    5.3     0.11700896      -149.7862519478 -3.47E-03
   168 Broy./Diag. 0.10E+00    5.3     0.19496226      -149.8037517821 -1.75E-02
   169 Broy./Diag. 0.10E+00    5.3     0.21354156      -149.8154439894 -1.17E-02
   170 Broy./Diag. 0.10E+00    5.3     0.15125513      -149.8215845677 -6.14E-03
   171 Broy./Diag. 0.10E+00    5.3     0.03145869      -149.8103402286  1.12E-02
   172 Broy./Diag. 0.10E+00    5.3     0.03757498      -149.8161591204 -5.82E-03
   173 Broy./Diag. 0.10E+00    5.3     0.04576961      -149.8184648810 -2.31E-03
   174 Broy./Diag. 0.10E+00    5.2     0.09289752      -149.8075550538  1.09E-02
   175 Broy./Diag. 0.10E+00    5.2     0.21425204      -149.7788288586  2.87E-02
   176 Broy./Diag. 0.10E+00    5.3     0.25849444      -149.7776315666  1.20E-03
   177 Broy./Diag. 0.10E+00    5.3     0.09862316      -149.7971815477 -1.95E-02
   178 Broy./Diag. 0.10E+00    5.4     0.02496797      -149.8183112112 -2.11E-02
   179 Broy./Diag. 0.10E+00    5.3     0.02702151      -149.8298040251 -1.15E-02
   180 Broy./Diag. 0.10E+00    5.3     0.03797347      -149.8381405498 -8.34E-03
   181 Broy./Diag. 0.10E+00    5.3     0.04494107      -149.8414625880 -3.32E-03
   182 Broy./Diag. 0.10E+00    5.2     0.14278304      -149.8390150366  2.45E-03
   183 Broy./Diag. 0.10E+00    5.3     0.22016861      -149.8383626395  6.52E-04
   184 Broy./Diag. 0.10E+00    5.3     0.19504304      -149.8454263646 -7.06E-03
   185 Broy./Diag. 0.10E+00    5.3     0.02930462      -149.8423237585  3.10E-03
   186 Broy./Diag. 0.10E+00    5.3     0.05571647      -149.8280456410  1.43E-02
   187 Broy./Diag. 0.10E+00    5.3     0.02139573      -149.8314248777 -3.38E-03
   188 Broy./Diag. 0.10E+00    5.3     0.09270952      -149.8233168936  8.11E-03
   189 Broy./Diag. 0.10E+00    5.3     0.12297695      -149.8175779927  5.74E-03
   190 Broy./Diag. 0.10E+00    5.2     0.17297457      -149.8085397861  9.04E-03
   191 Broy./Diag. 0.10E+00    5.3     0.12618737      -149.8167400554 -8.20E-03
   192 Broy./Diag. 0.10E+00    5.3     0.10937573      -149.8354653227 -1.87E-02
   193 Broy./Diag. 0.10E+00    5.3     0.05761468      -149.8351729955  2.92E-04
   194 Broy./Diag. 0.10E+00    5.3     0.01347781      -149.8221160990  1.31E-02
   195 Broy./Diag. 0.10E+00    5.3     0.07145737      -149.8078691006  1.42E-02
   196 Broy./Diag. 0.10E+00    5.3     0.11077835      -149.8065969360  1.27E-03
   197 Broy./Diag. 0.10E+00    5.3     0.15151340      -149.8085137447 -1.92E-03
   198 Broy./Diag. 0.10E+00    5.2     0.18291435      -149.8090704916 -5.57E-04
   199 Broy./Diag. 0.10E+00    5.3     0.21125096      -149.8029282897  6.14E-03
   200 Broy./Diag. 0.10E+00    5.3     0.22270180      -149.8084819376 -5.55E-03
   201 Broy./Diag. 0.10E+00    5.3     0.18272971      -149.8055647333  2.92E-03
   202 Broy./Diag. 0.10E+00    5.3     0.16680669      -149.7865549399  1.90E-02
   203 Broy./Diag. 0.10E+00    5.3     0.12228775      -149.7710272170  1.55E-02
   204 Broy./Diag. 0.10E+00    5.3     0.07620783      -149.7579887763  1.30E-02
   205 Broy./Diag. 0.10E+00    5.3     0.06284271      -149.7464820019  1.15E-02
   206 Broy./Diag. 0.10E+00    5.3     0.07913581      -149.7350485918  1.14E-02
   207 Broy./Diag. 0.10E+00    5.3     0.10433454      -149.7232080886  1.18E-02
   208 Broy./Diag. 0.10E+00    5.3     0.11031798      -149.7105551764  1.27E-02
   209 Broy./Diag. 0.10E+00    5.3     0.15545887      -149.7598586217 -4.93E-02
   210 Broy./Diag. 0.10E+00    5.4     0.13932878      -149.8055433061 -4.57E-02
   211 Broy./Diag. 0.10E+00    5.4     0.11091208      -149.8458602725 -4.03E-02
   212 Broy./Diag. 0.10E+00    5.4     0.09241781      -149.8682641350 -2.24E-02
   213 Broy./Diag. 0.10E+00    5.3     0.11545834      -149.8661543642  2.11E-03
   214 Broy./Diag. 0.10E+00    5.3     0.12414105      -149.8530640691  1.31E-02
   215 Broy./Diag. 0.10E+00    5.3     0.03577576      -149.8187497119  3.43E-02
   216 Broy./Diag. 0.10E+00    5.3     0.04474035      -149.7991956091  1.96E-02
   217 Broy./Diag. 0.10E+00    5.4     0.09122724      -149.7849326438  1.43E-02
   218 Broy./Diag. 0.10E+00    5.3     0.09203572      -149.7706081261  1.43E-02
   219 Broy./Diag. 0.10E+00    5.3     0.10304967      -149.7570437701  1.36E-02
   220 Broy./Diag. 0.10E+00    5.3     0.07982808      -149.7587165748 -1.67E-03
   221 Broy./Diag. 0.10E+00    5.3     0.02879695      -149.7616300980 -2.91E-03
   222 Broy./Diag. 0.10E+00    5.3     0.01160493      -149.7646370445 -3.01E-03
   223 Broy./Diag. 0.10E+00    5.3     0.07129994      -149.7619341494  2.70E-03
   224 Broy./Diag. 0.10E+00    5.3     0.10888294      -149.7643117669 -2.38E-03
   225 Broy./Diag. 0.10E+00    5.3     0.17243217      -149.7639058082  4.06E-04
   226 Broy./Diag. 0.10E+00    5.3     0.19398915      -149.7663411221 -2.44E-03
   227 Broy./Diag. 0.10E+00    5.3     0.15401691      -149.7676735590 -1.33E-03
   228 Broy./Diag. 0.10E+00    5.3     0.14414260      -149.7676380765  3.55E-05
   229 Broy./Diag. 0.10E+00    5.4     0.14164640      -149.7621131843  5.52E-03
   230 Broy./Diag. 0.10E+00    5.3     0.16372703      -149.7582232968  3.89E-03
   231 Broy./Diag. 0.10E+00    5.3     0.15831017      -149.7534135641  4.81E-03
   232 Broy./Diag. 0.10E+00    5.3     0.12781265      -149.7446610161  8.75E-03
   233 Broy./Diag. 0.10E+00    5.3     0.10183948      -149.7358337730  8.83E-03
   234 Broy./Diag. 0.10E+00    5.3     0.10176794      -149.7305196780  5.31E-03
   235 Broy./Diag. 0.10E+00    5.3     0.12383945      -149.7279657379  2.55E-03
   236 Broy./Diag. 0.10E+00    5.3     0.15606945      -149.7312950833 -3.33E-03
   237 Broy./Diag. 0.10E+00    5.4     0.10762238      -149.7467056487 -1.54E-02
   238 Broy./Diag. 0.10E+00    5.3     0.09385769      -149.7606689559 -1.40E-02
   239 Broy./Diag. 0.10E+00    5.3     0.11068575      -149.7675115359 -6.84E-03
   240 Broy./Diag. 0.10E+00    5.3     0.10001101      -149.7696010976 -2.09E-03
   241 Broy./Diag. 0.10E+00    5.3     0.05193263      -149.7696099742 -8.88E-06
   242 Broy./Diag. 0.10E+00    5.3     0.01957552      -149.7636210184  5.99E-03
   243 Broy./Diag. 0.10E+00    5.3     0.01730082      -149.7555852918  8.04E-03
   244 Broy./Diag. 0.10E+00    5.3     0.00656626      -149.7526731331  2.91E-03
   245 Broy./Diag. 0.10E+00    5.3     0.04918321      -149.7476024304  5.07E-03
   246 Broy./Diag. 0.10E+00    5.4     0.05280809      -149.7379410040  9.66E-03
   247 Broy./Diag. 0.10E+00    5.3     0.00662803      -149.7308855295  7.06E-03
   248 Broy./Diag. 0.10E+00    5.3     0.01550625      -149.7290175726  1.87E-03
   249 Broy./Diag. 0.10E+00    5.3     0.00516785      -149.7324124285 -3.39E-03
   250 Broy./Diag. 0.10E+00    5.3     0.01502241      -149.7371390144 -4.73E-03
   251 Broy./Diag. 0.10E+00    5.3     0.05604623      -149.7415007835 -4.36E-03
   252 Broy./Diag. 0.10E+00    5.3     0.06112348      -149.7487844823 -7.28E-03
   253 Broy./Diag. 0.10E+00    5.3     0.13945704      -149.7479321343  8.52E-04
   254 Broy./Diag. 0.10E+00    5.3     0.21152419      -149.7500729007 -2.14E-03
   255 Broy./Diag. 0.10E+00    5.4     0.16098216      -149.7432144331  6.86E-03
   256 Broy./Diag. 0.10E+00    5.3     0.17618674      -149.7418594579  1.35E-03
   257 Broy./Diag. 0.10E+00    5.3     0.20499861      -149.7319551098  9.90E-03
   258 Broy./Diag. 0.10E+00    5.3     0.21371496      -149.7252818129  6.67E-03
   259 Broy./Diag. 0.10E+00    5.3     0.20201027      -149.7150760039  1.02E-02
   260 Broy./Diag. 0.10E+00    5.4     0.14987029      -149.7091731255  5.90E-03
   261 Broy./Diag. 0.10E+00    5.3     0.11334936      -149.7021020423  7.07E-03
   262 Broy./Diag. 0.10E+00    5.3     0.07639400      -149.6972300534  4.87E-03
   263 Broy./Diag. 0.10E+00    5.4     0.06166655      -149.6966908834  5.39E-04
   264 Broy./Diag. 0.10E+00    5.3     0.05903967      -149.6991867433 -2.50E-03
   265 Broy./Diag. 0.10E+00    5.3     0.10109801      -149.7022911960 -3.10E-03
   266 Broy./Diag. 0.10E+00    5.3     0.12579579      -149.7039474452 -1.66E-03
   267 Broy./Diag. 0.10E+00    5.4     0.13408611      -149.7104137854 -6.47E-03
   268 Broy./Diag. 0.10E+00    5.3     0.13027712      -149.7172586858 -6.84E-03
   269 Broy./Diag. 0.10E+00    5.3     0.11177091      -149.7371032009 -1.98E-02
   270 Broy./Diag. 0.10E+00    5.3     0.06998736      -149.7606617808 -2.36E-02
   271 Broy./Diag. 0.10E+00    5.3     0.01452469      -149.7691212678 -8.46E-03
   272 Broy./Diag. 0.10E+00    5.3     0.00642960      -149.7885035161 -1.94E-02
   273 Broy./Diag. 0.10E+00    5.3     0.02956428      -149.7975996034 -9.10E-03
   274 Broy./Diag. 0.10E+00    5.3     0.02501149      -149.7916461448  5.95E-03
   275 Broy./Diag. 0.10E+00    5.3     0.01337205      -149.7808871841  1.08E-02
   276 Broy./Diag. 0.10E+00    5.3     0.03983561      -149.7731710158  7.72E-03
   277 Broy./Diag. 0.10E+00    5.3     0.02342196      -149.7652934906  7.88E-03
   278 Broy./Diag. 0.10E+00    5.3     0.02215268      -149.7493246123  1.60E-02
   279 Broy./Diag. 0.10E+00    5.3     0.00796953      -149.7381026403  1.12E-02
   280 Broy./Diag. 0.10E+00    5.4     0.01742845      -149.7344869234  3.62E-03
   281 Broy./Diag. 0.10E+00    5.3     0.01408638      -149.7333907240  1.10E-03
   282 Broy./Diag. 0.10E+00    5.3     0.02264250      -149.7265906932  6.80E-03
   283 Broy./Diag. 0.10E+00    5.3     0.01385249      -149.7210071086  5.58E-03
   284 Broy./Diag. 0.10E+00    5.3     0.02347919      -149.7185284649  2.48E-03
   285 Broy./Diag. 0.10E+00    5.4     0.01948859      -149.7162636490  2.26E-03
   286 Broy./Diag. 0.10E+00    5.3     0.02392054      -149.7148635776  1.40E-03
   287 Broy./Diag. 0.10E+00    5.4     0.04796147      -149.7145056136  3.58E-04
   288 Broy./Diag. 0.10E+00    5.3     0.08579635      -149.7150583886 -5.53E-04
   289 Broy./Diag. 0.10E+00    5.3     0.14494182      -149.7150598806 -1.49E-06
   290 Broy./Diag. 0.10E+00    5.3     0.20028471      -149.7131106241  1.95E-03
   291 Broy./Diag. 0.10E+00    5.4     0.18554739      -149.7086327291  4.48E-03
   292 Broy./Diag. 0.10E+00    5.3     0.22654160      -149.7002102111  8.42E-03
   293 Broy./Diag. 0.10E+00    5.3     0.21048923      -149.6903803435  9.83E-03
   294 Broy./Diag. 0.10E+00    5.3     0.15987554      -149.6822618920  8.12E-03
   295 Broy./Diag. 0.10E+00    5.3     0.13284299      -149.6753046422  6.96E-03
   296 Broy./Diag. 0.10E+00    5.3     0.09738320      -149.6701903450  5.11E-03
   297 Broy./Diag. 0.10E+00    5.4     0.08055509      -149.6669271894  3.26E-03
   298 Broy./Diag. 0.10E+00    5.3     0.06697066      -149.6648837852  2.04E-03
   299 Broy./Diag. 0.10E+00    5.3     0.05134138      -149.6633749842  1.51E-03
   300 Broy./Diag. 0.10E+00    5.3     0.03175003      -149.6637323016 -3.57E-04
   301 Broy./Diag. 0.10E+00    5.3     0.03947765      -149.6624663255  1.27E-03
   302 Broy./Diag. 0.10E+00    5.3     0.10412244      -149.6442586090  1.82E-02
   303 Broy./Diag. 0.10E+00    5.3     0.18647713      -149.5807704233  6.35E-02
   304 Broy./Diag. 0.10E+00    5.3     0.20970140      -149.4581963958  1.23E-01
   305 Broy./Diag. 0.10E+00    5.4     0.14795445      -149.3412647347  1.17E-01
   306 Broy./Diag. 0.10E+00    5.4     0.09001656      -149.3780470252 -3.68E-02

 *** WARNING in pw/ps_wavelet_methods.F:238 :: Density non-zero on the ***
 *** edges of the unit cell: wrong results in WAVELET solver           ***

   307 Broy./Diag. 0.10E+00    5.3     0.09771781      -149.5787425862 -2.01E-01

 *** WARNING in pw/ps_wavelet_methods.F:238 :: Density non-zero on the ***
 *** edges of the unit cell: wrong results in WAVELET solver           ***

   308 Broy./Diag. 0.10E+00    5.3     0.08223026      -149.6079031319 -2.92E-02

 *** WARNING in pw/ps_wavelet_methods.F:238 :: Density non-zero on the ***
 *** edges of the unit cell: wrong results in WAVELET solver           ***

   309 Broy./Diag. 0.10E+00    5.3     0.03532522      -149.6012031641  6.70E-03

 *** WARNING in pw/ps_wavelet_methods.F:238 :: Density non-zero on the ***
 *** edges of the unit cell: wrong results in WAVELET solver           ***

   310 Broy./Diag. 0.10E+00    5.3     0.11870436      -149.6999644571 -9.88E-02

 *** WARNING in pw/ps_wavelet_methods.F:238 :: Density non-zero on the ***
 *** edges of the unit cell: wrong results in WAVELET solver           ***

   311 Broy./Diag. 0.10E+00    5.4     0.06296236      -149.7520129989 -5.20E-02

 *** WARNING in pw/ps_wavelet_methods.F:238 :: Density non-zero on the ***
 *** edges of the unit cell: wrong results in WAVELET solver           ***

   312 Broy./Diag. 0.10E+00    5.4     0.14949630      -149.8041630292 -5.22E-02

 *** WARNING in pw/ps_wavelet_methods.F:238 :: Density non-zero on the ***
 *** edges of the unit cell: wrong results in WAVELET solver           ***

   313 Broy./Diag. 0.10E+00    5.4     0.13276057      -149.8254090496 -2.12E-02

 *** WARNING in pw/ps_wavelet_methods.F:238 :: Density non-zero on the ***
 *** edges of the unit cell: wrong results in WAVELET solver           ***

   314 Broy./Diag. 0.10E+00    5.3     0.17351043      -149.9778544259 -1.52E-01

 *** WARNING in pw/ps_wavelet_methods.F:238 :: Density non-zero on the ***
 *** edges of the unit cell: wrong results in WAVELET solver           ***

   315 Broy./Diag. 0.10E+00    5.3     0.22539574      -150.0287065540 -5.09E-02

 *** WARNING in pw/ps_wavelet_methods.F:238 :: Density non-zero on the ***
 *** edges of the unit cell: wrong results in WAVELET solver           ***

   316 Broy./Diag. 0.10E+00    5.4     0.36451286      -149.9758887870  5.28E-02

 *** WARNING in pw/ps_wavelet_methods.F:238 :: Density non-zero on the ***
 *** edges of the unit cell: wrong results in WAVELET solver           ***

   317 Broy./Diag. 0.10E+00    5.3     0.21211798      -149.9487460672  2.71E-02

 *** WARNING in pw/ps_wavelet_methods.F:238 :: Density non-zero on the ***
 *** edges of the unit cell: wrong results in WAVELET solver           ***

   318 Broy./Diag. 0.10E+00    5.3     0.04727672      -149.9071664023  4.16E-02

 *** WARNING in pw/ps_wavelet_methods.F:238 :: Density non-zero on the ***
 *** edges of the unit cell: wrong results in WAVELET solver           ***

   319 Broy./Diag. 0.10E+00    5.3     0.00797472      -149.9027841699  4.38E-03
   320 Broy./Diag. 0.10E+00    5.3     0.02788302      -149.8907465301  1.20E-02

 *** WARNING in pw/ps_wavelet_methods.F:238 :: Density non-zero on the ***
 *** edges of the unit cell: wrong results in WAVELET solver           ***

   321 Broy./Diag. 0.10E+00    5.3     0.10042144      -149.8757741067  1.50E-02

 *** WARNING in pw/ps_wavelet_methods.F:238 :: Density non-zero on the ***
 *** edges of the unit cell: wrong results in WAVELET solver           ***

   322 Broy./Diag. 0.10E+00    5.3     0.05762690      -149.8363661958  3.94E-02
   323 Broy./Diag. 0.10E+00    5.3     0.01446415      -149.8115135304  2.49E-02

 *** WARNING in pw/ps_wavelet_methods.F:238 :: Density non-zero on the ***
 *** edges of the unit cell: wrong results in WAVELET solver           ***

   324 Broy./Diag. 0.10E+00    5.3     0.23468632      -149.9688193888 -1.57E-01

 *** WARNING in pw/ps_wavelet_methods.F:238 :: Density non-zero on the ***
 *** edges of the unit cell: wrong results in WAVELET solver           ***

   325 Broy./Diag. 0.10E+00    5.3     0.31584579      -150.0281756006 -5.94E-02

 *** WARNING in pw/ps_wavelet_methods.F:238 :: Density non-zero on the ***
 *** edges of the unit cell: wrong results in WAVELET solver           ***

   326 Broy./Diag. 0.10E+00    5.3     0.08346140      -150.0231381903  5.04E-03

 *** WARNING in pw/ps_wavelet_methods.F:238 :: Density non-zero on the ***
 *** edges of the unit cell: wrong results in WAVELET solver           ***

   327 Broy./Diag. 0.10E+00    5.3     0.18245397      -150.0284669965 -5.33E-03

 *** WARNING in pw/ps_wavelet_methods.F:238 :: Density non-zero on the ***
 *** edges of the unit cell: wrong results in WAVELET solver           ***

   328 Broy./Diag. 0.10E+00    5.3     0.17819204      -150.0139183797  1.45E-02
   329 Broy./Diag. 0.10E+00    5.3     0.02324975      -149.9379039379  7.60E-02
   330 Broy./Diag. 0.10E+00    5.3     0.07257778      -149.8686032138  6.93E-02
   331 Broy./Diag. 0.10E+00    5.4     0.03004907      -149.8397553761  2.88E-02
   332 Broy./Diag. 0.10E+00    5.3     0.04839303      -149.8360176111  3.74E-03
   333 Broy./Diag. 0.10E+00    5.3     0.05606289      -149.8346097727  1.41E-03
   334 Broy./Diag. 0.10E+00    5.3     0.21376187      -149.7658137574  6.88E-02
   335 Broy./Diag. 0.10E+00    5.3     0.12271553      -149.7755267648 -9.71E-03
   336 Broy./Diag. 0.10E+00    5.4     0.09772055      -149.7961133301 -2.06E-02
   337 Broy./Diag. 0.10E+00    5.4     0.17883211      -149.7917392551  4.37E-03
   338 Broy./Diag. 0.10E+00    5.3     0.15948991      -149.7855166253  6.22E-03
   339 Broy./Diag. 0.10E+00    5.3     0.23245593      -149.7775162394  8.00E-03
   340 Broy./Diag. 0.10E+00    5.3     0.23860101      -149.7816235597 -4.11E-03
   341 Broy./Diag. 0.10E+00    5.4     0.19882652      -149.7725779357  9.05E-03
   342 Broy./Diag. 0.10E+00    5.3     0.13629283      -149.7673355640  5.24E-03
   343 Broy./Diag. 0.10E+00    5.3     0.07984417      -149.7570150001  1.03E-02
   344 Broy./Diag. 0.10E+00    5.3     0.04417956      -149.7477346262  9.28E-03
   345 Broy./Diag. 0.10E+00    5.3     0.02079483      -149.7461601179  1.57E-03
   346 Broy./Diag. 0.10E+00    5.3     0.00372551      -149.7504930050 -4.33E-03
   347 Broy./Diag. 0.10E+00    5.3     0.06022760      -149.7561055703 -5.61E-03
   348 Broy./Diag. 0.10E+00    5.3     0.19215354      -149.7509947605  5.11E-03
   349 Broy./Diag. 0.10E+00    5.3     0.21792663      -149.7938142620 -4.28E-02
   350 Broy./Diag. 0.10E+00    5.3     0.13091349      -149.8641568931 -7.03E-02
   351 Broy./Diag. 0.10E+00    5.3     0.04606352      -149.9162744497 -5.21E-02
   352 Broy./Diag. 0.10E+00    5.3     0.06369058      -149.9423291144 -2.61E-02
[...]
   418 Broy./Diag. 0.10E+00    5.3     0.20584686      -149.7492419911  4.40E-02
   419 Broy./Diag. 0.10E+00    5.3     0.29566919      -149.7294347533  1.98E-02
   420 Broy./Diag. 0.10E+00    5.3     0.21856983      -149.7170457525  1.24E-02
   421 Broy./Diag. 0.10E+00    5.3     0.22719658      -149.7061668121  1.09E-02
   422 Broy./Diag. 0.10E+00    5.3     0.19963490      -149.7276568071 -2.15E-02
   423 Broy./Diag. 0.10E+00    5.3     0.16539814      -149.7296242456 -1.97E-03
   424 Broy./Diag. 0.10E+00    5.3     0.10138099      -149.7370362111 -7.41E-03
   425 Broy./Diag. 0.10E+00    5.3     0.09549367      -149.7248894530  1.21E-02
   426 Broy./Diag. 0.10E+00    5.3     0.07414614      -149.7077286084  1.72E-02
   427 Broy./Diag. 0.10E+00    5.4     0.08284970      -149.7049906687  2.74E-03
   428 Broy./Diag. 0.10E+00    5.3     0.09121818      -149.7036645452  1.33E-03
   429 Broy./Diag. 0.10E+00    5.3     0.17221208      -149.6759163012  2.77E-02
   430 Broy./Diag. 0.10E+00    5.3     0.18791541      -149.6435793706  3.23E-02
   431 Broy./Diag. 0.10E+00    5.3     0.13719402      -149.6630772027 -1.95E-02
   432 Broy./Diag. 0.10E+00    5.3     0.10984611      -149.7133389525 -5.03E-02
   433 Broy./Diag. 0.10E+00    5.3     0.04970542      -149.8052728686 -9.19E-02
   434 Broy./Diag. 0.10E+00    5.3     0.05828105      -149.8359067132 -3.06E-02
   435 Broy./Diag. 0.10E+00    5.3     0.02065271      -149.8048097852  3.11E-02
   436 Broy./Diag. 0.10E+00    5.3     0.01682338      -149.7371801401  6.76E-02
   437 Broy./Diag. 0.10E+00    5.3     0.01708233      -149.6908237646  4.64E-02
   438 Broy./Diag. 0.10E+00    5.4     0.01607630      -149.6646763454  2.61E-02
   439 Broy./Diag. 0.10E+00    5.4     0.02676396      -149.6511412992  1.35E-02
   440 Broy./Diag. 0.10E+00    5.3     0.02367474      -149.6658550998 -1.47E-02
   441 Broy./Diag. 0.10E+00    5.3     0.03417982      -149.6940100219 -2.82E-02
   442 Broy./Diag. 0.10E+00    5.3     0.01804214      -149.7089807385 -1.50E-02
   443 Broy./Diag. 0.10E+00    5.3     0.00412050      -149.7097425128 -7.62E-04
   444 Broy./Diag. 0.10E+00    5.4     0.00056983      -149.7110569141 -1.31E-03
   445 Broy./Diag. 0.10E+00    5.3     0.01040530      -149.7126585982 -1.60E-03
   446 Broy./Diag. 0.10E+00    5.3     0.00791654      -149.7165416034 -3.88E-03
   447 Broy./Diag. 0.10E+00    5.3     0.00211627      -149.7232066995 -6.67E-03
   448 Broy./Diag. 0.10E+00    5.3     0.00217563      -149.7259401966 -2.73E-03
   449 Broy./Diag. 0.10E+00    5.3     0.00250182      -149.7262509178 -3.11E-04
   450 Broy./Diag. 0.10E+00    5.3     0.00873850      -149.7217413182  4.51E-03
   451 Broy./Diag. 0.10E+00    5.3     0.00627066      -149.7176702085  4.07E-03
   452 Broy./Diag. 0.10E+00    5.3     0.00817665      -149.7153761015  2.29E-03
   453 Broy./Diag. 0.10E+00    5.3     0.00420946      -149.7170369176 -1.66E-03
   454 Broy./Diag. 0.10E+00    5.3     0.00127384      -149.7188975172 -1.86E-03
   455 Broy./Diag. 0.10E+00    5.3     0.00066206      -149.7192674827 -3.70E-04
   456 Broy./Diag. 0.10E+00    5.3     0.00254305      -149.7170389934  2.23E-03
   457 Broy./Diag. 0.10E+00    5.3     0.00120950      -149.7146651356  2.37E-03
   458 Broy./Diag. 0.10E+00    5.3     0.00157641      -149.7138474242  8.18E-04
   459 Broy./Diag. 0.10E+00    5.3     0.00669116      -149.7148066358 -9.59E-04
   460 Broy./Diag. 0.10E+00    5.3     0.00069063      -149.7152843702 -4.78E-04
   461 Broy./Diag. 0.10E+00    5.3     0.00040163      -149.7149219699  3.62E-04
   462 Broy./Diag. 0.10E+00    5.4     0.00055738      -149.7140463001  8.76E-04
   463 Broy./Diag. 0.10E+00    5.3     0.00044355      -149.7140972171 -5.09E-05
   464 Broy./Diag. 0.10E+00    5.4     0.00108633      -149.7149852026 -8.88E-04
   465 Broy./Diag. 0.10E+00    5.3     0.00090622      -149.7149044676  8.07E-05
   466 Broy./Diag. 0.10E+00    5.3     0.00119286      -149.7138197805  1.08E-03
   467 Broy./Diag. 0.10E+00    5.3     0.00030902      -149.7137200176  9.98E-05
   468 Broy./Diag. 0.10E+00    5.3     0.00020046      -149.7138245738 -1.05E-04
   469 Broy./Diag. 0.10E+00    5.3     0.00065988      -149.7136670696  1.58E-04
   470 Broy./Diag. 0.10E+00    5.3     0.00065173      -149.7134052865  2.62E-04
   471 Broy./Diag. 0.10E+00    5.3     0.00015173      -149.7129986085  4.07E-04
   472 Broy./Diag. 0.10E+00    5.3     0.00014462      -149.7129574170  4.12E-05
   473 Broy./Diag. 0.10E+00    5.4     0.00018721      -149.7129935409 -3.61E-05
   474 Broy./Diag. 0.10E+00    5.3     0.00051809      -149.7130780562 -8.45E-05
   475 Broy./Diag. 0.10E+00    5.3     0.00029780      -149.7132037542 -1.26E-04
   476 Broy./Diag. 0.10E+00    5.3     0.00017661      -149.7132712259 -6.75E-05
   477 Broy./Diag. 0.10E+00    5.3     0.00009203      -149.7132929108 -2.17E-05
   478 Broy./Diag. 0.10E+00    5.3     0.00033826      -149.7132636761  2.92E-05
   479 Broy./Diag. 0.10E+00    5.3     0.00056836      -149.7131808133  8.29E-05
   480 Broy./Diag. 0.10E+00    5.3     0.00072394      -149.7131292903  5.15E-05
   481 Broy./Diag. 0.10E+00    5.3     0.00108193      -149.7131253450  3.95E-06
   482 Broy./Diag. 0.10E+00    5.3     0.00153390      -149.7131561867 -3.08E-05
   483 Broy./Diag. 0.10E+00    5.4     0.00272977      -149.7131673252 -1.11E-05
   484 Broy./Diag. 0.10E+00    5.3     0.00458462      -149.7132084822 -4.12E-05
   485 Broy./Diag. 0.10E+00    5.3     0.00778714      -149.7133215216 -1.13E-04
   486 Broy./Diag. 0.10E+00    5.3     0.01338693      -149.7135181102 -1.97E-04
   487 Broy./Diag. 0.10E+00    5.3     0.02297580      -149.7137013567 -1.83E-04
   488 Broy./Diag. 0.10E+00    5.4     0.04147857      -149.7134637082  2.38E-04
   489 Broy./Diag. 0.10E+00    5.4     0.06926378      -149.7126358569  8.28E-04
   490 Broy./Diag. 0.10E+00    5.3     0.11837969      -149.7117849654  8.51E-04
   491 Broy./Diag. 0.10E+00    5.3     0.18492077      -149.7101861048  1.60E-03
   492 Broy./Diag. 0.10E+00    5.3     0.23628834      -149.7063840930  3.80E-03
   493 Broy./Diag. 0.10E+00    5.3     0.21899271      -149.6994320274  6.95E-03
   494 Broy./Diag. 0.10E+00    5.3     0.18388144      -149.6902461362  9.19E-03
   495 Broy./Diag. 0.10E+00    5.3     0.17962322      -149.6814213735  8.82E-03
   496 Broy./Diag. 0.10E+00    5.3     0.14411322      -149.6747915298  6.63E-03
   497 Broy./Diag. 0.10E+00    5.3     0.10420385      -149.6702010416  4.59E-03
   498 Broy./Diag. 0.10E+00    5.3     0.07577875      -149.6667453483  3.46E-03
   499 Broy./Diag. 0.10E+00    5.3     0.05547541      -149.6643655566  2.38E-03
   500 Broy./Diag. 0.10E+00    5.3     0.04613147      -149.6615456617  2.82E-03

  Leaving inner SCF loop after reaching   500 steps.


  Electronic density on regular grids:        -12.0952408735        3.9047591265
  Core density on regular grids:               16.0000000000        0.0000000000
  Hard and soft densities (Lebedev):          -22.9796117168      -19.0747340990
  Total Rho_soft + Rho1_hard - Rho1_soft      -16.0001184913
  Total charge density (r-space):              -0.0001184913
  Total Rho_soft + Rho0_soft (g-space):        -0.0001186939

  Overlap energy of the core charge distribution:               0.00000000200246
  Self energy of the core charge distribution:               -145.82024045573709
  Core Hamiltonian energy:                                    -14.76144621639053
  Hartree energy:                                              27.79257417397652
  Exchange-correlation energy:                                 -5.18778872857138
  Hartree-Fock Exchange energy:                                -4.03621684617216

  GAPW| Exc from hard and soft atomic rho1:                    -7.44277055545993
  GAPW| local Eh = 1 center integrals:                         -0.20565703538012

  Total energy:                                              -149.66154566173225

 *******************************************************************************
 *   ___                                                                       *
 *  /   \                                                                      *
 * [ABORT]                                                                     *
 *  \___/     SCF run NOT converged. To continue the calculation regardless,   *
 *    |             please set the keyword IGNORE_CONVERGENCE_FAILURE.         *
 *  O/|                                                                        *
 * /| |                                                                        *
 * / \                                                            qs_scf.F:611 *
 *******************************************************************************


 ===== Routine Calling Stack ===== 

            3 scf_env_do_scf
            2 qs_energies
            1 CP2K

 *******************************************************************************
 *   ___                                                                       *
 *  /   \                                                                      *
 * [ABORT]                                                                     *
 *  \___/     SCF run NOT converged. To continue the calculation regardless,   *
 *    |             please set the keyword IGNORE_CONVERGENCE_FAILURE.         *
 *  O/|                                                                        *
 * /| |                                                                        *
 * / \                                                            qs_scf.F:611 *
 *******************************************************************************


 ===== Routine Calling Stack ===== 

            3 scf_env_do_scf
            2 qs_energies
            1 CP2K

 *******************************************************************************
 *   ___                                                                       *
 *  /   \                                                                      *
 * [ABORT]                                                                     *
 *  \___/     SCF run NOT converged. To continue the calculation regardless,   *
 *    |             please set the keyword IGNORE_CONVERGENCE_FAILURE.         *
 *  O/|                                                                        *
 * /| |                                                                        *
 * / \                                                            qs_scf.F:611 *
 *******************************************************************************


 ===== Routine Calling Stack ===== 

            3 scf_env_do_scf
            2 qs_energies
            1 CP2K

 *******************************************************************************
 *   ___                                                                       *
 *  /   \                                                                      *
 * [ABORT]                                                                     *
 *  \___/     SCF run NOT converged. To continue the calculation regardless,   *
 *    |             please set the keyword IGNORE_CONVERGENCE_FAILURE.         *
 *  O/|                                                                        *
 * /| |                                                                        *
 * / \                                                            qs_scf.F:611 *
 *******************************************************************************


 ===== Routine Calling Stack ===== 

            3 scf_env_do_scf
            2 qs_energies
            1 CP2K

 *******************************************************************************
 *   ___                                                                       *
 *  /   \                                                                      *
 * [ABORT]                                                                     *
 *  \___/     SCF run NOT converged. To continue the calculation regardless,   *
 *    |             please set the keyword IGNORE_CONVERGENCE_FAILURE.         *
 *  O/|                                                                        *
 * /| |                                                                        *
 * / \                                                            qs_scf.F:611 *
 *******************************************************************************


 ===== Routine Calling Stack ===== 

            3 scf_env_do_scf
            2 qs_energies
            1 CP2K

 *******************************************************************************
 *   ___                                                                       *
 *  /   \                                                                      *
 * [ABORT]                                                                     *
 *  \___/     SCF run NOT converged. To continue the calculation regardless,   *
 *    |             please set the keyword IGNORE_CONVERGENCE_FAILURE.         *
 *  O/|                                                                        *
 * /| |                                                                        *
 * / \                                                            qs_scf.F:611 *
 *******************************************************************************


 ===== Routine Calling Stack ===== 

            3 scf_env_do_scf
            2 qs_energies
            1 CP2K

 *******************************************************************************
 *   ___                                                                       *
 *  /   \                                                                      *
 * [ABORT]                                                                     *
 *  \___/     SCF run NOT converged. To continue the calculation regardless,   *
 *    |             please set the keyword IGNORE_CONVERGENCE_FAILURE.         *
 *  O/|                                                                        *
 * /| |                                                                        *
 * / \                                                            qs_scf.F:611 *
 *******************************************************************************


 ===== Routine Calling Stack ===== 

            3 scf_env_do_scf
            2 qs_energies
            1 CP2K

 *******************************************************************************
 *   ___                                                                       *
 *  /   \                                                                      *
 * [ABORT]                                                                     *
 *  \___/     SCF run NOT converged. To continue the calculation regardless,   *
 *    |             please set the keyword IGNORE_CONVERGENCE_FAILURE.         *
 *  O/|                                                                        *
 * /| |                                                                        *
 * / \                                                            qs_scf.F:611 *
 *******************************************************************************


 ===== Routine Calling Stack ===== 

            3 scf_env_do_scf
            2 qs_energies
            1 CP2K

 *******************************************************************************
 *   ___                                                                       *
 *  /   \                                                                      *
 * [ABORT]                                                                     *
 *  \___/     SCF run NOT converged. To continue the calculation regardless,   *
 *    |             please set the keyword IGNORE_CONVERGENCE_FAILURE.         *
 *  O/|                                                                        *
 * /| |                                                                        *
 * / \                                                            qs_scf.F:611 *
 *******************************************************************************


 ===== Routine Calling Stack ===== 

            3 scf_env_do_scf
            2 qs_energies
            1 CP2K

 *******************************************************************************
 *   ___                                                                       *
 *  /   \                                                                      *
 * [ABORT]                                                                     *
 *  \___/     SCF run NOT converged. To continue the calculation regardless,   *
 *    |             please set the keyword IGNORE_CONVERGENCE_FAILURE.         *
 *  O/|                                                                        *
 * /| |                                                                        *
 * / \                                                            qs_scf.F:611 *
 *******************************************************************************


 ===== Routine Calling Stack ===== 

            3 scf_env_do_scf
            2 qs_energies
            1 CP2K

 *******************************************************************************
 *   ___                                                                       *
 *  /   \                                                                      *
 * [ABORT]                                                                     *
 *  \___/     SCF run NOT converged. To continue the calculation regardless,   *
 *    |             please set the keyword IGNORE_CONVERGENCE_FAILURE.         *
 *  O/|                                                                        *
 * /| |                                                                        *
 * / \                                                            qs_scf.F:611 *
 *******************************************************************************


 ===== Routine Calling Stack ===== 

            3 scf_env_do_scf
            2 qs_energies
            1 CP2K

 *******************************************************************************
 *   ___                                                                       *
 *  /   \                                                                      *
 * [ABORT]                                                                     *
 *  \___/     SCF run NOT converged. To continue the calculation regardless,   *
 *    |             please set the keyword IGNORE_CONVERGENCE_FAILURE.         *
 *  O/|                                                                        *
 * /| |                                                                        *
 * / \                                                            qs_scf.F:611 *
 *******************************************************************************


 ===== Routine Calling Stack ===== 

            3 scf_env_do_scf
            2 qs_energies
            1 CP2K

 *******************************************************************************
 *   ___                                                                       *
 *  /   \                                                                      *
 * [ABORT]                                                                     *
 *  \___/     SCF run NOT converged. To continue the calculation regardless,   *
 *    |             please set the keyword IGNORE_CONVERGENCE_FAILURE.         *
 *  O/|                                                                        *
 * /| |                                                                        *
 * / \                                                            qs_scf.F:611 *
 *******************************************************************************


 ===== Routine Calling Stack ===== 

            3 scf_env_do_scf
            2 qs_energies
            1 CP2K
