 DBCSR| CPU Multiplication driver                                           BLAS (U)
 DBCSR| Multrec recursion limit                                              512 (U)
 DBCSR| Multiplication stack size                                           1000 (D)
 DBCSR| Maximum elements for images                                    UNLIMITED (U)
 DBCSR| Multiplicative factor virtual images                                   1 (U)
 DBCSR| Use multiplication densification                                       T (D)
 DBCSR| Multiplication size stacks                                             3 (U)
 DBCSR| Use memory pool for CPU allocation                                     F (U)
 DBCSR| Number of 3D layers                                               SINGLE (U)
 DBCSR| Use MPI memory allocation                                              F (U)
 DBCSR| Use RMA algorithm                                                      F (U)
 DBCSR| Use Communication thread                                               T (U)
 DBCSR| Communication thread load                                             75 (D)
 DBCSR| MPI: My process id                                                     0
 DBCSR| MPI: Number of processes                                              24
 DBCSR| OMP: Current number of threads                                         4
 DBCSR| OMP: Max number of threads                                             4
 DBCSR| Split modifier for TAS multiplication algorithm                  1.0E+00 (U)


  **** **** ******  **  PROGRAM STARTED AT               2025-03-15 01:31:15.437
 ***** ** ***  *** **   PROGRAM STARTED ON                          i01r03c06s06
 **    ****   ******    PROGRAM STARTED BY                               di38fab
 ***** **    ** ** **   PROGRAM PROCESS ID                               3707422
  **** **  *******  **  PROGRAM STARTED IN /hppfs/scratch/04/di38fab/05_MOL/W4-1
                                           1+ALK/b2/DZVP/GW+BSE/1e-3

 CP2K| version string:                 CP2K version 2025.1 (Development Version)
 CP2K| source code revision number:                                  git:d2e611a
 CP2K| cp2kflags: omp libint fftw3 libxc parallel scalapack max_contr=4         
 CP2K| is freely available from                            https://www.cp2k.org/
 CP2K| Program compiled at                       Thu 06 Mar 2025 05:09:20 PM CET
 CP2K| Program compiled on                                               login02
 CP2K| Program compiled for                                        Supermuc-foss
 CP2K| Data directory path                  /hppfs/work/pn36zo/di38fab/cp2k/data
 CP2K| Input file name                                                    GW.inp

 GLOBAL| Force Environment number                                              1
 GLOBAL| Basis set file name            /hppfs/scratch/04/di38fab/04_TMD/BASIS_A
 GLOBAL| Potential file name            /hppfs/work/pn36zo/di38fab/cp2k/data/ALL
 GLOBAL| MM Potential file name                                     MM_POTENTIAL
 GLOBAL| Coordinate file name                                      __STD_INPUT__
 GLOBAL| Method name                                                        CP2K
 GLOBAL| Project name                                                       MoS2
 GLOBAL| Run type                                                         ENERGY
 GLOBAL| FFT library                                                       FFTW3
 GLOBAL| Diagonalization library                                       ScaLAPACK
 GLOBAL| DGEMM library                                                      BLAS
 GLOBAL| Orthonormality check for eigenvectors                          DISABLED
 GLOBAL| Matrix multiplication library                                 ScaLAPACK
 GLOBAL| All-to-all communication in single precision                          F
 GLOBAL| FFTs using library dependent lengths                                  F
 GLOBAL| Grid backend                                                       AUTO
 GLOBAL| Global print level                                               MEDIUM
 GLOBAL| MPI I/O enabled                                                       T
 GLOBAL| Total number of message passing processes                            24
 GLOBAL| Number of threads for this process                                    4
 GLOBAL| This output is from process                                           0
 GLOBAL| OpenMP stack size per thread (OMP_STACKSIZE)                    default
 GLOBAL| CPU model name             Intel(R) Xeon(R) Platinum 8174 CPU @ 3.10GHz

 MEMORY| system memory details [Kb]
 MEMORY|                        rank 0           min           max       average
 MEMORY| MemTotal             98436664      98436664      98436708      98436686
 MEMORY| MemFree              83941876      83803876      83941876      83872876
 MEMORY| Buffers                     0             0             0             0
 MEMORY| Cached                2394976       2387952       2394976       2391464
 MEMORY| Slab                  1224296       1224296       1239672       1231984
 MEMORY| SReclaimable           260896        260896        262464        261680
 MEMORY| MemLikelyFree        86597748      86454292      86597748      86526020


 *** Fundamental physical constants (SI units) ***

 *** Literature: B. J. Mohr and B. N. Taylor,
 ***             CODATA recommended values of the fundamental physical
 ***             constants: 2006, Web Version 5.1
 ***             http://physics.nist.gov/constants

 Speed of light in vacuum [m/s]                             2.99792458000000E+08
 Magnetic constant or permeability of vacuum [N/A**2]       1.25663706143592E-06
 Electric constant or permittivity of vacuum [F/m]          8.85418781762039E-12
 Planck constant (h) [J*s]                                  6.62606896000000E-34
 Planck constant (h-bar) [J*s]                              1.05457162825177E-34
 Elementary charge [C]                                      1.60217648700000E-19
 Electron mass [kg]                                         9.10938215000000E-31
 Electron g factor [ ]                                     -2.00231930436220E+00
 Proton mass [kg]                                           1.67262163700000E-27
 Fine-structure constant                                    7.29735253760000E-03
 Rydberg constant [1/m]                                     1.09737315685270E+07
 Avogadro constant [1/mol]                                  6.02214179000000E+23
 Boltzmann constant [J/K]                                   1.38065040000000E-23
 Atomic mass unit [kg]                                      1.66053878200000E-27
 Bohr radius [m]                                            5.29177208590000E-11

 *** Conversion factors ***

 [u] -> [a.u.]                                              1.82288848426455E+03
 [Angstrom] -> [Bohr] = [a.u.]                              1.88972613288564E+00
 [a.u.] = [Bohr] -> [Angstrom]                              5.29177208590000E-01
 [a.u.] -> [s]                                              2.41888432650478E-17
 [a.u.] -> [fs]                                             2.41888432650478E-02
 [a.u.] -> [J]                                              4.35974393937059E-18
 [a.u.] -> [N]                                              8.23872205491840E-08
 [a.u.] -> [K]                                              3.15774647902944E+05
 [a.u.] -> [kJ/mol]                                         2.62549961709828E+03
 [a.u.] -> [kcal/mol]                                       6.27509468713739E+02
 [a.u.] -> [Pa]                                             2.94210107994716E+13
 [a.u.] -> [bar]                                            2.94210107994716E+08
 [a.u.] -> [atm]                                            2.90362800883016E+08
 [a.u.] -> [eV]                                             2.72113838565563E+01
 [a.u.] -> [Hz]                                             6.57968392072181E+15
 [a.u.] -> [1/cm] (wave numbers)                            2.19474631370540E+05
 [a.u./Bohr**2] -> [1/cm]                                   5.14048714338585E+03
 

 CELL_TOP| Volume [angstrom^3]:                                     27000.000000
 CELL_TOP| Vector a [angstrom    30.000     0.000     0.000   |a| =    30.000000
 CELL_TOP| Vector b [angstrom     0.000    30.000     0.000   |b| =    30.000000
 CELL_TOP| Vector c [angstrom     0.000     0.000    30.000   |c| =    30.000000
 CELL_TOP| Angle (b,c), alpha [degree]:                                90.000000
 CELL_TOP| Angle (a,c), beta  [degree]:                                90.000000
 CELL_TOP| Angle (a,b), gamma [degree]:                                90.000000
 CELL_TOP| Numerically orthorhombic:                                         YES
 CELL_TOP| Periodicity                                                      NONE

 GENERATE|  Preliminary Number of Bonds generated:                             0
 GENERATE|  Achieved consistency in connectivity generation.

 CELL| Volume [angstrom^3]:                                         27000.000000
 CELL| Vector a [angstrom]:      30.000     0.000     0.000   |a| =    30.000000
 CELL| Vector b [angstrom]:       0.000    30.000     0.000   |b| =    30.000000
 CELL| Vector c [angstrom]:       0.000     0.000    30.000   |c| =    30.000000
 CELL| Angle (b,c), alpha [degree]:                                    90.000000
 CELL| Angle (a,c), beta  [degree]:                                    90.000000
 CELL| Angle (a,b), gamma [degree]:                                    90.000000
 CELL| Numerically orthorhombic:                                             YES
 CELL| Periodicity                                                          NONE

 CELL_REF| Volume [angstrom^3]:                                     27000.000000
 CELL_REF| Vector a [angstrom    30.000     0.000     0.000   |a| =    30.000000
 CELL_REF| Vector b [angstrom     0.000    30.000     0.000   |b| =    30.000000
 CELL_REF| Vector c [angstrom     0.000     0.000    30.000   |c| =    30.000000
 CELL_REF| Angle (b,c), alpha [degree]:                                90.000000
 CELL_REF| Angle (a,c), beta  [degree]:                                90.000000
 CELL_REF| Angle (a,b), gamma [degree]:                                90.000000
 CELL_REF| Numerically orthorhombic:                                         YES
 CELL_REF| Periodicity                                                      NONE

 *******************************************************************************
 *******************************************************************************
 **                                                                           **
 **     #####                         ##              ##                      **
 **    ##   ##            ##          ##              ##                      **
 **   ##     ##                       ##            ######                    **
 **   ##     ##  ##   ##  ##   #####  ##  ##   ####   ##    #####    #####    **
 **   ##     ##  ##   ##  ##  ##      ## ##   ##      ##   ##   ##  ##   ##   **
 **   ##  ## ##  ##   ##  ##  ##      ####     ###    ##   ######   ######    **
 **    ##  ###   ##   ##  ##  ##      ## ##      ##   ##   ##       ##        **
 **     #######   #####   ##   #####  ##  ##  ####    ##    #####   ##        **
 **           ##                                                    ##        **
 **                                                                           **
 **                                                ... make the atoms dance   **
 **                                                                           **
 **            Copyright (C) by CP2K developers group (2000-2025)             **
 **                      J. Chem. Phys. 152, 194103 (2020)                    **
 **                                                                           **
 *******************************************************************************

 DFT| Spin restricted Kohn-Sham (RKS) calculation                            RKS
 DFT| Multiplicity                                                             1
 DFT| Number of spin states                                                    1
 DFT| Charge                                                                   0
 DFT| Self-interaction correction (SIC)                                       NO
 DFT| Cutoffs: density                                              1.000000E-10
 DFT|          gradient                                             1.000000E-10
 DFT|          tau                                                  1.000000E-10
 DFT|          cutoff_smoothing_range                               0.000000E+00
 DFT| XC density smoothing                                                  NONE
 DFT| XC derivatives                                                          PW

 FUNCTIONAL| PBE:
 FUNCTIONAL| J.P.Perdew, K.Burke, M.Ernzerhof, Phys. Rev. Letter, vol. 77, n 18,
 FUNCTIONAL|  pp. 3865-3868, (1996)sx=0.750sc=1.000{spin unpolarized}           


 QS| Method:                                                                GAPW
 QS| Density plane wave grid type                        NON-SPHERICAL FULLSPACE
 QS| Number of grid levels:                                                    4
 QS| Density cutoff [a.u.]:                                                250.0
 QS| Multi grid cutoff [a.u.]: 1) grid level                               250.0
 QS|                           2) grid level                                83.3
 QS|                           3) grid level                                27.8
 QS|                           4) grid level                                 9.3
 QS| Grid level progression factor:                                          3.0
 QS| Relative density cutoff [a.u.]:                                        50.0
 QS| Interaction thresholds: eps_pgf_orb:                                1.0E-12
 QS|                         eps_filter_matrix:                          0.0E+00
 QS|                         eps_core_charge:                            1.0E-14
 QS|                         eps_rho_gspace:                             1.0E-12
 QS|                         eps_rho_rspace:                             1.0E-12
 QS|                         eps_gvg_rspace:                             1.0E-06
 QS|                         eps_ppl:                                    1.0E-02
 QS|                         eps_ppnl:                                   1.0E-08
 QS| GAPW|      One center basis from orbital basis primitives
 QS| GAPW|                   eps_fit:                                    1.0E-04
 QS| GAPW|                   eps_iso:                                    1.0E-12
 QS| GAPW|                   eps_svd:                                    1.0E-08
 QS| GAPW|                   eps_cpc:                                    1.0E-12
 QS| GAPW|   atom-r-grid: quadrature:                                     GC_LOG
 QS| GAPW|      atom-s-grid:  max l :                                          6
 QS| GAPW|      max_l_rho0 :                                                   2


 ATOMIC KIND INFORMATION

  1. Atomic kind: B                                     Number of atoms:       2

     Orbital Basis Set                                        aug-DZVP-MOLOPT-ae

       Number of orbital shell sets:                                           2
       Number of orbital shells:                                              10
       Number of primitive Cartesian functions:                               12
       Number of Cartesian basis functions:                                   35
       Number of spherical basis functions:                                   30
       Norm type:                                                              2

       Normalised Cartesian orbitals:

                        Set   Shell   Orbital            Exponent    Coefficient

                          1       1    2s                0.082134       0.085473
                                                         0.140000       0.049675
                                                         0.279625      -0.030750
                                                         0.881274       0.022030
                                                         4.510873       0.000000

                          1       2    3px               0.082134      -0.004879
                                                         0.140000       0.000000
                                                         0.279625      -0.151722
                                                         0.881274      -0.583957
                                                         4.510873      -1.036243
                          1       2    3py               0.082134      -0.004879
                                                         0.140000       0.000000
                                                         0.279625      -0.151722
                                                         0.881274      -0.583957
                                                         4.510873      -1.036243
                          1       2    3pz               0.082134      -0.004879
                                                         0.140000       0.000000
                                                         0.279625      -0.151722
                                                         0.881274      -0.583957
                                                         4.510873      -1.036243

                          1       3    4px               0.082134       0.052233
                                                         0.140000       0.000000
                                                         0.279625       0.094300
                                                         0.881274      -0.581323
                                                         4.510873      -0.510604
                          1       3    4py               0.082134       0.052233
                                                         0.140000       0.000000
                                                         0.279625       0.094300
                                                         0.881274      -0.581323
                                                         4.510873      -0.510604
                          1       3    4pz               0.082134       0.052233
                                                         0.140000       0.000000
                                                         0.279625       0.094300
                                                         0.881274      -0.581323
                                                         4.510873      -0.510604

                          1       4    5px               0.082134       0.024659
                                                         0.140000       0.076570
                                                         0.279625      -0.053289
                                                         0.881274       0.410720
                                                         4.510873       0.000000
                          1       4    5py               0.082134       0.024659
                                                         0.140000       0.076570
                                                         0.279625      -0.053289
                                                         0.881274       0.410720
                                                         4.510873       0.000000
                          1       4    5pz               0.082134       0.024659
                                                         0.140000       0.076570
                                                         0.279625      -0.053289
                                                         0.881274       0.410720
                                                         4.510873       0.000000

                          1       5    4dx2              0.082134       0.000404
                                                         0.140000       0.000000
                                                         0.279625       0.111576
                                                         0.881274       0.641739
                                                         4.510873      -0.272354
                          1       5    4dxy              0.082134       0.000700
                                                         0.140000       0.000000
                                                         0.279625       0.193255
                                                         0.881274       1.111524
                                                         4.510873      -0.471731
                          1       5    4dxz              0.082134       0.000700
                                                         0.140000       0.000000
                                                         0.279625       0.193255
                                                         0.881274       1.111524
                                                         4.510873      -0.471731
                          1       5    4dy2              0.082134       0.000404
                                                         0.140000       0.000000
                                                         0.279625       0.111576
                                                         0.881274       0.641739
                                                         4.510873      -0.272354
                          1       5    4dyz              0.082134       0.000700
                                                         0.140000       0.000000
                                                         0.279625       0.193255
                                                         0.881274       1.111524
                                                         4.510873      -0.471731
                          1       5    4dz2              0.082134       0.000404
                                                         0.140000       0.000000
                                                         0.279625       0.111576
                                                         0.881274       0.641739
                                                         4.510873      -0.272354

                          1       6    5dx2              0.082134       0.036596
                                                         0.140000      -0.054919
                                                         0.279625      -0.008802
                                                         0.881274      -0.232953
                                                         4.510873       0.000000
                          1       6    5dxy              0.082134       0.063387
                                                         0.140000      -0.095122
                                                         0.279625      -0.015246
                                                         0.881274      -0.403486
                                                         4.510873       0.000000
                          1       6    5dxz              0.082134       0.063387
                                                         0.140000      -0.095122
                                                         0.279625      -0.015246
                                                         0.881274      -0.403486
                                                         4.510873       0.000000
                          1       6    5dy2              0.082134       0.036596
                                                         0.140000      -0.054919
                                                         0.279625      -0.008802
                                                         0.881274      -0.232953
                                                         4.510873       0.000000
                          1       6    5dyz              0.082134       0.063387
                                                         0.140000      -0.095122
                                                         0.279625      -0.015246
                                                         0.881274      -0.403486
                                                         4.510873       0.000000
                          1       6    5dz2              0.082134       0.036596
                                                         0.140000      -0.054919
                                                         0.279625      -0.008802
                                                         0.881274      -0.232953
                                                         4.510873       0.000000

                          1       7    5fx3              0.082134      -0.000468
                                                         0.140000       0.012301
                                                         0.279625       0.033988
                                                         0.881274       0.068820
                                                         4.510873       0.000000
                          1       7    5fx2y             0.082134      -0.001048
                                                         0.140000       0.027506
                                                         0.279625       0.075998
                                                         0.881274       0.153886
                                                         4.510873       0.000000
                          1       7    5fx2z             0.082134      -0.001048
                                                         0.140000       0.027506
                                                         0.279625       0.075998
                                                         0.881274       0.153886
                                                         4.510873       0.000000
                          1       7    5fxy2             0.082134      -0.001048
                                                         0.140000       0.027506
                                                         0.279625       0.075998
                                                         0.881274       0.153886
                                                         4.510873       0.000000
                          1       7    5fxyz             0.082134      -0.001814
                                                         0.140000       0.047643
                                                         0.279625       0.131633
                                                         0.881274       0.266539
                                                         4.510873       0.000000
                          1       7    5fxz2             0.082134      -0.001048
                                                         0.140000       0.027506
                                                         0.279625       0.075998
                                                         0.881274       0.153886
                                                         4.510873       0.000000
                          1       7    5fy3              0.082134      -0.000468
                                                         0.140000       0.012301
                                                         0.279625       0.033988
                                                         0.881274       0.068820
                                                         4.510873       0.000000
                          1       7    5fy2z             0.082134      -0.001048
                                                         0.140000       0.027506
                                                         0.279625       0.075998
                                                         0.881274       0.153886
                                                         4.510873       0.000000
                          1       7    5fyz2             0.082134      -0.001048
                                                         0.140000       0.027506
                                                         0.279625       0.075998
                                                         0.881274       0.153886
                                                         4.510873       0.000000
                          1       7    5fz3              0.082134      -0.000468
                                                         0.140000       0.012301
                                                         0.279625       0.033988
                                                         0.881274       0.068820
                                                         4.510873       0.000000

                          2       1    1s              839.324562      -0.573042
                                                       126.174643      -1.097170
                                                        28.339532      -1.625259
                                                         7.329111      -1.470436
                                                         2.208031      -0.468381
                                                         0.410209      -0.026981
                                                         0.151694      -0.023850

                          2       2    2s              839.324562       0.050684
                                                       126.174643      -0.115654
                                                        28.339532      -0.168560
                                                         7.329111      -0.289389
                                                         2.208031      -0.246292
                                                         0.410209       0.238157
                                                         0.151694       0.084355

                          2       3    3s              839.324562      -2.590681
                                                       126.174643       0.127370
                                                        28.339532      -1.260776
                                                         7.329111      -0.567183
                                                         2.208031      -0.073452
                                                         0.410209      -0.458063
                                                         0.151694       0.280188

     RI Auxiliary Basis Set             RI_aug-DZVP-MOLOPT-ae_N_RI_035_s_p_d_f_g

       Number of orbital shell sets:                                          13
       Number of orbital shells:                                              13
       Number of primitive Cartesian functions:                               13
       Number of Cartesian basis functions:                                   40
       Number of spherical basis functions:                                   35
       Norm type:                                                              2

       Normalised Cartesian orbitals:

                        Set   Shell   Orbital            Exponent    Coefficient

                          1       1    1s                0.155297       0.176312

                          2       1   11dx2              0.191101       0.090912
                          2       1   11dxy              0.191101       0.157464
                          2       1   11dxz              0.191101       0.157464
                          2       1   11dy2              0.191101       0.090912
                          2       1   11dyz              0.191101       0.157464
                          2       1   11dz2              0.191101       0.090912

                          3       1    7px               0.280108       0.290467
                          3       1    7py               0.280108       0.290467
                          3       1    7pz               0.280108       0.290467

                          4       1    2s                0.348203       0.323061

                          5       1   13fx3              0.401700       0.189118
                          5       1   13fx2y             0.401700       0.422882
                          5       1   13fx2z             0.401700       0.422882
                          5       1   13fxy2             0.401700       0.422882
                          5       1   13fxyz             0.401700       0.732452
                          5       1   13fxz2             0.401700       0.422882
                          5       1   13fy3              0.401700       0.189118
                          5       1   13fy2z             0.401700       0.422882
                          5       1   13fyz2             0.401700       0.422882
                          5       1   13fz3              0.401700       0.189118

                          6       1    8px               0.444336       0.517106
                          6       1    8py               0.444336       0.517106
                          6       1    8pz               0.444336       0.517106

                          7       1   12dx2              0.761687       1.022158
                          7       1   12dxy              0.761687       1.770430
                          7       1   12dxz              0.761687       1.770430
                          7       1   12dy2              0.761687       1.022158
                          7       1   12dyz              0.761687       1.770430
                          7       1   12dz2              0.761687       1.022158

                          8       1    3s                1.114597       0.773123

                          9       1    9px               1.400889       2.172425
                          9       1    9py               1.400889       2.172425
                          9       1    9pz               1.400889       2.172425

                         10       1    4s                3.952925       1.998016

                         11       1   10px               6.658811      15.247055
                         11       1   10py               6.658811      15.247055
                         11       1   10pz               6.658811      15.247055

                         12       1    5s               13.787097       5.099349

                         13       1    6s               47.491635      12.893563

       Atomic covalent radius [Angstrom]:                                  0.820

       Atomic van der Waals radius [Angstrom]:                             1.920

     The atoms of this atomic kind are PAW atoms (GAPW):
       Hard Gaussian function radius:                                      1.512
       Rho0 radius:                                                        1.512
       Maximum GTO radius used for PAW projector construction:            24.566

     GAPW Soft Basis Set                                 aug-DZVP-MOLOPT-ae_soft

       Number of orbital shell sets:                                           2
       Number of orbital shells:                                              10
       Number of primitive Cartesian functions:                                8
       Number of Cartesian basis functions:                                   35
       Number of spherical basis functions:                                   30
       Norm type:                                                              2

       Normalised Cartesian orbitals:

                        Set   Shell   Orbital            Exponent    Coefficient

                          1       1    2s                0.082134       0.085473
                                                         0.140000       0.049675
                                                         0.279625      -0.030750
                                                         0.881274       0.022030
                                                         4.510873       0.000000

                          1       2    3px               0.082134      -0.004879
                                                         0.140000       0.000000
                                                         0.279625      -0.151722
                                                         0.881274      -0.583957
                                                         4.510873       0.000000
                          1       2    3py               0.082134      -0.004879
                                                         0.140000       0.000000
                                                         0.279625      -0.151722
                                                         0.881274      -0.583957
                                                         4.510873       0.000000
                          1       2    3pz               0.082134      -0.004879
                                                         0.140000       0.000000
                                                         0.279625      -0.151722
                                                         0.881274      -0.583957
                                                         4.510873       0.000000

                          1       3    4px               0.082134       0.052233
                                                         0.140000       0.000000
                                                         0.279625       0.094300
                                                         0.881274      -0.581323
                                                         4.510873       0.000000
                          1       3    4py               0.082134       0.052233
                                                         0.140000       0.000000
                                                         0.279625       0.094300
                                                         0.881274      -0.581323
                                                         4.510873       0.000000
                          1       3    4pz               0.082134       0.052233
                                                         0.140000       0.000000
                                                         0.279625       0.094300
                                                         0.881274      -0.581323
                                                         4.510873       0.000000

                          1       4    5px               0.082134       0.024659
                                                         0.140000       0.076570
                                                         0.279625      -0.053289
                                                         0.881274       0.410720
                                                         4.510873       0.000000
                          1       4    5py               0.082134       0.024659
                                                         0.140000       0.076570
                                                         0.279625      -0.053289
                                                         0.881274       0.410720
                                                         4.510873       0.000000
                          1       4    5pz               0.082134       0.024659
                                                         0.140000       0.076570
                                                         0.279625      -0.053289
                                                         0.881274       0.410720
                                                         4.510873       0.000000

                          1       5    4dx2              0.082134       0.000404
                                                         0.140000       0.000000
                                                         0.279625       0.111576
                                                         0.881274       0.641739
                                                         4.510873       0.000000
                          1       5    4dxy              0.082134       0.000700
                                                         0.140000       0.000000
                                                         0.279625       0.193255
                                                         0.881274       1.111524
                                                         4.510873       0.000000
                          1       5    4dxz              0.082134       0.000700
                                                         0.140000       0.000000
                                                         0.279625       0.193255
                                                         0.881274       1.111524
                                                         4.510873       0.000000
                          1       5    4dy2              0.082134       0.000404
                                                         0.140000       0.000000
                                                         0.279625       0.111576
                                                         0.881274       0.641739
                                                         4.510873       0.000000
                          1       5    4dyz              0.082134       0.000700
                                                         0.140000       0.000000
                                                         0.279625       0.193255
                                                         0.881274       1.111524
                                                         4.510873       0.000000
                          1       5    4dz2              0.082134       0.000404
                                                         0.140000       0.000000
                                                         0.279625       0.111576
                                                         0.881274       0.641739
                                                         4.510873       0.000000

                          1       6    5dx2              0.082134       0.036596
                                                         0.140000      -0.054919
                                                         0.279625      -0.008802
                                                         0.881274      -0.232953
                                                         4.510873       0.000000
                          1       6    5dxy              0.082134       0.063387
                                                         0.140000      -0.095122
                                                         0.279625      -0.015246
                                                         0.881274      -0.403486
                                                         4.510873       0.000000
                          1       6    5dxz              0.082134       0.063387
                                                         0.140000      -0.095122
                                                         0.279625      -0.015246
                                                         0.881274      -0.403486
                                                         4.510873       0.000000
                          1       6    5dy2              0.082134       0.036596
                                                         0.140000      -0.054919
                                                         0.279625      -0.008802
                                                         0.881274      -0.232953
                                                         4.510873       0.000000
                          1       6    5dyz              0.082134       0.063387
                                                         0.140000      -0.095122
                                                         0.279625      -0.015246
                                                         0.881274      -0.403486
                                                         4.510873       0.000000
                          1       6    5dz2              0.082134       0.036596
                                                         0.140000      -0.054919
                                                         0.279625      -0.008802
                                                         0.881274      -0.232953
                                                         4.510873       0.000000

                          1       7    5fx3              0.082134      -0.000468
                                                         0.140000       0.012301
                                                         0.279625       0.033988
                                                         0.881274       0.068820
                                                         4.510873       0.000000
                          1       7    5fx2y             0.082134      -0.001048
                                                         0.140000       0.027506
                                                         0.279625       0.075998
                                                         0.881274       0.153886
                                                         4.510873       0.000000
                          1       7    5fx2z             0.082134      -0.001048
                                                         0.140000       0.027506
                                                         0.279625       0.075998
                                                         0.881274       0.153886
                                                         4.510873       0.000000
                          1       7    5fxy2             0.082134      -0.001048
                                                         0.140000       0.027506
                                                         0.279625       0.075998
                                                         0.881274       0.153886
                                                         4.510873       0.000000
                          1       7    5fxyz             0.082134      -0.001814
                                                         0.140000       0.047643
                                                         0.279625       0.131633
                                                         0.881274       0.266539
                                                         4.510873       0.000000
                          1       7    5fxz2             0.082134      -0.001048
                                                         0.140000       0.027506
                                                         0.279625       0.075998
                                                         0.881274       0.153886
                                                         4.510873       0.000000
                          1       7    5fy3              0.082134      -0.000468
                                                         0.140000       0.012301
                                                         0.279625       0.033988
                                                         0.881274       0.068820
                                                         4.510873       0.000000
                          1       7    5fy2z             0.082134      -0.001048
                                                         0.140000       0.027506
                                                         0.279625       0.075998
                                                         0.881274       0.153886
                                                         4.510873       0.000000
                          1       7    5fyz2             0.082134      -0.001048
                                                         0.140000       0.027506
                                                         0.279625       0.075998
                                                         0.881274       0.153886
                                                         4.510873       0.000000
                          1       7    5fz3              0.082134      -0.000468
                                                         0.140000       0.012301
                                                         0.279625       0.033988
                                                         0.881274       0.068820
                                                         4.510873       0.000000

                          2       1    1s                2.208031      -0.468381
                                                         0.410209      -0.026981
                                                         0.151694      -0.023850

                          2       2    2s                2.208031      -0.246292
                                                         0.410209       0.238157
                                                         0.151694       0.084355

                          2       3    3s                2.208031      -0.073452
                                                         0.410209      -0.458063
                                                         0.151694       0.280188

     AE Potential information for                                            ALL

       Description:                                       All-electron potential
                                          Krack, Parrinello, PCCP 2, 2105 (2000)

       Gaussian exponent of the core charge distribution:               2.655410
       Electronic configuration (s p d ...):                           4   1   0


 MOLECULE KIND INFORMATION


 All atoms are their own molecule, skipping detailed information


 TOTAL NUMBERS AND MAXIMUM NUMBERS

  Total number of            - Atomic kinds:                                   1
                             - Atoms:                                          2
                             - Shell sets:                                     4
                             - Shells:                                        20
                             - Primitive Cartesian functions:                 24
                             - Cartesian basis functions:                     70
                             - Spherical basis functions:                     60

  Maximum angular momentum of the orbital basis functions:                     3


 MODULE QUICKSTEP: ATOMIC COORDINATES IN ANGSTROM

   Atom Kind Element         X             Y             Z       Z(eff)     Mass
      1    1 B     5     15.793777     15.000000     15.000000   5.0000  10.8110
      2    1 B     5     14.206223     15.000000     15.000000   5.0000  10.8110



 SCF PARAMETERS         Density guess:                                    ATOMIC
                        --------------------------------------------------------
                        max_scf:                                             500
                        max_scf_history:                                       0
                        max_diis:                                              4
                        --------------------------------------------------------
                        eps_scf:                                        1.00E-06
                        eps_scf_history:                                0.00E+00
                        eps_diis:                                       1.00E-01
                        eps_eigval:                                     1.00E-05
                        --------------------------------------------------------
                        level_shift [a.u.]:                             0.000000
                        added MOs                                        55    0
                        --------------------------------------------------------
                        Mixing method:                            BROYDEN_MIXING
                                                charge density mixing in g-space
                        --------------------------------------------------------
                        No outer SCF

 PW_GRID| Information for grid number                                          1
 PW_GRID| Grid distributed over                                    24 processors
 PW_GRID| Real space group dimensions                                    24    1
 PW_GRID| the grid is blocked:                                                NO
 PW_GRID| Cutoff [a.u.]                                                    250.0
 PW_GRID| spherical cutoff:                                                   NO
 PW_GRID|   Bounds   1           -202     202                Points:         405
 PW_GRID|   Bounds   2           -202     202                Points:         405
 PW_GRID|   Bounds   3           -202     202                Points:         405
 PW_GRID| Volume element (a.u.^3)  0.2743E-02     Volume (a.u.^3)    182205.0337
 PW_GRID| Grid span                                                    FULLSPACE
 PW_GRID|   Distribution                         Average         Max         Min
 PW_GRID|   G-Vectors                          2767921.9     2768175     2767770
 PW_GRID|   G-Rays                                6834.4        6835        6834
 PW_GRID|   Real Space Points                  2767921.9     2788425     2624400

 PW_GRID| Information for grid number                                          2
 PW_GRID| Number of the reference grid                                         1
 PW_GRID| Grid distributed over                                    24 processors
 PW_GRID| Real space group dimensions                                    24    1
 PW_GRID| the grid is blocked:                                                NO
 PW_GRID| Cutoff [a.u.]                                                     83.3
 PW_GRID| spherical cutoff:                                                   NO
 PW_GRID|   Bounds   1           -120     119                Points:         240
 PW_GRID|   Bounds   2           -120     119                Points:         240
 PW_GRID|   Bounds   3           -120     119                Points:         240
 PW_GRID| Volume element (a.u.^3)  0.1318E-01     Volume (a.u.^3)    182205.0337
 PW_GRID| Grid span                                                    FULLSPACE
 PW_GRID|   Distribution                         Average         Max         Min
 PW_GRID|   G-Vectors                           576000.0      576240      575760
 PW_GRID|   G-Rays                                2400.0        2401        2399
 PW_GRID|   Real Space Points                   576000.0      576000      576000

 PW_GRID| Information for grid number                                          3
 PW_GRID| Number of the reference grid                                         1
 PW_GRID| Grid distributed over                                    24 processors
 PW_GRID| Real space group dimensions                                    24    1
 PW_GRID| the grid is blocked:                                                NO
 PW_GRID| Cutoff [a.u.]                                                     27.8
 PW_GRID| spherical cutoff:                                                   NO
 PW_GRID|   Bounds   1            -67      67                Points:         135
 PW_GRID|   Bounds   2            -67      67                Points:         135
 PW_GRID|   Bounds   3            -67      67                Points:         135
 PW_GRID| Volume element (a.u.^3)  0.7406E-01     Volume (a.u.^3)    182205.0337
 PW_GRID| Grid span                                                    FULLSPACE
 PW_GRID|   Distribution                         Average         Max         Min
 PW_GRID|   G-Vectors                           102515.6      102735      102330
 PW_GRID|   G-Rays                                 759.4         761         758
 PW_GRID|   Real Space Points                   102515.6      109350       91125

 PW_GRID| Information for grid number                                          4
 PW_GRID| Number of the reference grid                                         1
 PW_GRID| Grid distributed over                                    24 processors
 PW_GRID| Real space group dimensions                                    24    1
 PW_GRID| the grid is blocked:                                                NO
 PW_GRID| Cutoff [a.u.]                                                      9.3
 PW_GRID| spherical cutoff:                                                   NO
 PW_GRID|   Bounds   1            -40      39                Points:          80
 PW_GRID|   Bounds   2            -40      39                Points:          80
 PW_GRID|   Bounds   3            -40      39                Points:          80
 PW_GRID| Volume element (a.u.^3)  0.3559         Volume (a.u.^3)    182205.0337
 PW_GRID| Grid span                                                    FULLSPACE
 PW_GRID|   Distribution                         Average         Max         Min
 PW_GRID|   G-Vectors                            21333.3       21360       21280
 PW_GRID|   G-Rays                                 266.7         267         266
 PW_GRID|   Real Space Points                    21333.3       25600       19200

 POISSON| Solver                                                         WAVELET
 POISSON| Wavelet| Scaling function                                           40
 POISSON| Periodicity                                                       NONE

 RS_GRID| Information for grid number                                          1
 RS_GRID|   Bounds   1           -202     202                Points:         405
 RS_GRID|   Bounds   2           -202     202                Points:         405
 RS_GRID|   Bounds   3           -202     202                Points:         405
 RS_GRID| Real space distribution over                                  4 groups
 RS_GRID| Real space distribution along direction                              2
 RS_GRID| Border size                                                         36
 RS_GRID| Real space distribution over                                  6 groups
 RS_GRID| Real space distribution along direction                              3
 RS_GRID| Border size                                                         36
 RS_GRID|   Distribution                         Average         Max         Min
 RS_GRID|   Planes                                 173.2         174         173
 RS_GRID|   Distribution                         Average         Max         Min
 RS_GRID|   Planes                                 139.5         140         139

 RS_GRID| Information for grid number                                          2
 RS_GRID|   Bounds   1           -120     119                Points:         240
 RS_GRID|   Bounds   2           -120     119                Points:         240
 RS_GRID|   Bounds   3           -120     119                Points:         240
 RS_GRID| Real space distribution over                                  4 groups
 RS_GRID| Real space distribution along direction                              2
 RS_GRID| Border size                                                         39
 RS_GRID| Real space distribution over                                  6 groups
 RS_GRID| Real space distribution along direction                              3
 RS_GRID| Border size                                                         39
 RS_GRID|   Distribution                         Average         Max         Min
 RS_GRID|   Planes                                 138.0         138         138
 RS_GRID|   Distribution                         Average         Max         Min
 RS_GRID|   Planes                                 118.0         118         118

 RS_GRID| Information for grid number                                          3
 RS_GRID|   Bounds   1            -67      67                Points:         135
 RS_GRID|   Bounds   2            -67      67                Points:         135
 RS_GRID|   Bounds   3            -67      67                Points:         135
 RS_GRID| Real space fully replicated
 RS_GRID| Group size                                                           1

 RS_GRID| Information for grid number                                          4
 RS_GRID|   Bounds   1            -40      39                Points:          80
 RS_GRID|   Bounds   2            -40      39                Points:          80
 RS_GRID|   Bounds   3            -40      39                Points:          80
 RS_GRID| Real space fully replicated
 RS_GRID| Group size                                                           1

  HFX_INFO| Replica ID:                                                        1
  HFX_INFO| FRACTION:                                               0.2500000000
  HFX_INFO| Interaction Potential:                                       COULOMB
  HFX_INFO| EPS_SCHWARZ:                                                 1.0E-10
  HFX_INFO| EPS_SCHWARZ_FORCES                                           1.0E-08
  HFX_INFO| EPS_STORAGE_SCALING:                                         1.0E+00
  HFX_INFO| NBINS:                                                            64
  HFX_INFO| BLOCK_SIZE:                                                        1
  HFX_INFO| Number of periodic shells considered:                           NONE
  HFX_INFO| Number of periodic cells considered:                            NONE

 
 RI-RPA| using GPW style
 

 OVERLAP MATRIX CONDITION NUMBER
 1-Norm Condition Number (Estimate)
   CN : |A|*|A^-1|:  6.628E+000 *  1.761E+003   = 1.167E+004  Log(1-CN):  4.0672
 1-Norm and 2-Norm Condition Numbers using Diagonalization
   CN : |A|*|A^-1|:  6.628E+000 *  1.761E+003   = 1.167E+004  Log(1-CN):  4.0672
   CN : max/min ev:  4.513E+000 /  9.591E-004   = 4.706E+003  Log(2-CN):  3.6726

 Number of electrons:                                                         10
 Number of occupied orbitals:                                                  5
 Number of molecular orbitals:                                                60

 Number of orbital functions:                                                 60
 Number of independent orbital functions:                                     60

 Extrapolation method: initial_guess

 Atomic guess: The first density matrix is obtained in terms of atomic orbitals
               and electronic configurations assigned to each atomic kind

 Guess for atomic kind: B

 Electronic structure
    Total number of core electrons                                          0.00
    Total number of valence electrons                                       5.00
    Total number of electrons                                               5.00
    Multiplicity                                                   not specified
    S      2.00  2.00
    P      1.00


 *******************************************************************************
                  Iteration          Convergence                     Energy [au]
 *******************************************************************************
                          1        0.478540E-01                 -24.326455422583
                          2        0.230834E-01                 -24.328419827544
                          3        0.809223E-03                 -24.329078639833
                          4        0.575629E-06                 -24.329079411789

 Energy components [Hartree]           Total Energy ::          -24.329079411789
                                        Band Energy ::          -13.899544962659
                                     Kinetic Energy ::           24.474308884861
                                   Potential Energy ::          -48.803388296650
                                      Virial (-V/T) ::            1.994066043958
                                        Core Energy ::          -32.336650665617
                                          XC Energy ::           -3.541518263746
                                     Coulomb Energy ::           11.549089517574

 Orbital energies  State     L     Occupation   Energy[a.u.]          Energy[eV]

                       1     0          2.000      -6.542413         -178.028103
                       2     0          2.000      -0.341450           -9.291315

                       1     1          1.000      -0.131820           -3.587017


 Total Electron Density at R=0:                                        66.326855
 Re-scaling the density matrix to get the right number of electrons
                  # Electrons              Trace(P)               Scaling factor
                           10                10.000                        1.000


 SCF WAVEFUNCTION OPTIMIZATION

  Step     Update method      Time    Convergence         Total energy    Change
  ------------------------------------------------------------------------------

  HFX_MEM_INFO| Est. max. program size before HFX [MiB]:                    2173
  HFX_MEM_INFO| Number of cart. primitive ERI's calculated:            780567514
  HFX_MEM_INFO| Number of sph. ERI's calculated:                         4860000
  HFX_MEM_INFO| Number of sph. ERI's stored in-core:                     4860000
  HFX_MEM_INFO| Number of sph. ERI's stored on disk:                           0
  HFX_MEM_INFO| Number of sph. ERI's calculated on the fly:                    0
  HFX_MEM_INFO| Total memory consumption ERI's RAM [MiB]:                     21
  HFX_MEM_INFO| Whereof max-vals [MiB]:                                        1
  HFX_MEM_INFO| Total compression factor ERI's RAM:                         1.82
  HFX_MEM_INFO| Total memory consumption ERI's disk [MiB]:                     0
  HFX_MEM_INFO| Total compression factor ERI's disk:                        0.00
  HFX_MEM_INFO| Size of density/Fock matrix [MiB]:                             0
  HFX_MEM_INFO| Size of buffers [MiB]:                                        16
  HFX_MEM_INFO| Est. max. program size after HFX  [MiB]:                    2708

     1 NoMix/Diag. 0.10E+00   19.7     0.44020458       -49.4361328135 -4.94E+01
     2 Broy./Diag. 0.10E+00    4.9     0.02831793       -49.1803433501  2.56E-01
     3 Broy./Diag. 0.10E+00    5.0     0.01366347       -49.1140563213  6.63E-02
     4 Broy./Diag. 0.10E+00    4.9     0.06299754       -49.1136457798  4.11E-04
     5 Broy./Diag. 0.10E+00    4.9     0.00987908       -49.2161500289 -1.03E-01
     6 Broy./Diag. 0.10E+00    5.0     0.01550572       -49.2513164952 -3.52E-02
     7 Broy./Diag. 0.10E+00    5.0     0.00474526       -49.2807913934 -2.95E-02
     8 Broy./Diag. 0.10E+00    5.1     0.00045071       -49.2818886377 -1.10E-03
     9 Broy./Diag. 0.10E+00    5.3     0.00388172       -49.2761130823  5.78E-03
    10 Broy./Diag. 0.10E+00    5.4     0.00086156       -49.2709170119  5.20E-03
    11 Broy./Diag. 0.10E+00    5.3     0.00134902       -49.2715413527 -6.24E-04
    12 Broy./Diag. 0.10E+00    5.3     0.00178663       -49.2753578722 -3.82E-03
    13 Broy./Diag. 0.10E+00    5.3     0.00060901       -49.2787928320 -3.43E-03
    14 Broy./Diag. 0.10E+00    5.4     0.00064373       -49.2784078405  3.85E-04
    15 Broy./Diag. 0.10E+00    5.3     0.00043859       -49.2778576674  5.50E-04
    16 Broy./Diag. 0.10E+00    5.4     0.00019691       -49.2779598616 -1.02E-04
    17 Broy./Diag. 0.10E+00    5.4     0.00042291       -49.2770590576  9.01E-04
    18 Broy./Diag. 0.10E+00    5.4     0.00012013       -49.2762954760  7.64E-04
    19 Broy./Diag. 0.10E+00    5.3     0.00036521       -49.2764635104 -1.68E-04
    20 Broy./Diag. 0.10E+00    5.3     0.00010297       -49.2770001621 -5.37E-04
    21 Broy./Diag. 0.10E+00    5.3     0.00004540       -49.2770149075 -1.47E-05
    22 Broy./Diag. 0.10E+00    5.3     0.00013071       -49.2769753591  3.95E-05
    23 Broy./Diag. 0.10E+00    5.4     0.00012710       -49.2769998827 -2.45E-05
    24 Broy./Diag. 0.10E+00    5.5     0.00005089       -49.2769390182  6.09E-05
    25 Broy./Diag. 0.10E+00    5.4     0.00005208       -49.2768037450  1.35E-04
    26 Broy./Diag. 0.10E+00    5.4     0.00005557       -49.2766812487  1.22E-04
    27 Broy./Diag. 0.10E+00    5.5     0.00004282       -49.2766304194  5.08E-05
    28 Broy./Diag. 0.10E+00    5.3     0.00003313       -49.2765674830  6.29E-05
    29 Broy./Diag. 0.10E+00    5.3     0.00002016       -49.2765461994  2.13E-05
    30 Broy./Diag. 0.10E+00    5.3     0.00007966       -49.2765576190 -1.14E-05
    31 Broy./Diag. 0.10E+00    5.3     0.00005894       -49.2765650943 -7.48E-06
    32 Broy./Diag. 0.10E+00    5.3     0.00002240       -49.2765606627  4.43E-06
    33 Broy./Diag. 0.10E+00    5.4     0.00005667       -49.2765541787  6.48E-06
    34 Broy./Diag. 0.10E+00    5.4     0.00004506       -49.2765463953  7.78E-06
    35 Broy./Diag. 0.10E+00    5.4     0.00002193       -49.2765472732 -8.78E-07
    36 Broy./Diag. 0.10E+00    5.3     0.00001542       -49.2765528949 -5.62E-06
    37 Broy./Diag. 0.10E+00    5.3     0.00001046       -49.2765396561  1.32E-05
    38 Broy./Diag. 0.10E+00    5.4     0.00000636       -49.2765165710  2.31E-05
    39 Broy./Diag. 0.10E+00    5.4     0.00001890       -49.2764965168  2.01E-05
    40 Broy./Diag. 0.10E+00    5.4     0.00001448       -49.2764881648  8.35E-06
    41 Broy./Diag. 0.10E+00    5.4     0.00001063       -49.2765015131 -1.33E-05
    42 Broy./Diag. 0.10E+00    5.4     0.00000605       -49.2765064946 -4.98E-06
    43 Broy./Diag. 0.10E+00    5.3     0.00000578       -49.2765029021  3.59E-06
    44 Broy./Diag. 0.10E+00    5.4     0.00001206       -49.2764974511  5.45E-06
    45 Broy./Diag. 0.10E+00    5.3     0.00001179       -49.2764935544  3.90E-06
    46 Broy./Diag. 0.10E+00    5.4     0.00001086       -49.2764947086 -1.15E-06
    47 Broy./Diag. 0.10E+00    5.4     0.00001192       -49.2764940062  7.02E-07
    48 Broy./Diag. 0.10E+00    5.4     0.00001638       -49.2764875464  6.46E-06
    49 Broy./Diag. 0.10E+00    5.4     0.00001205       -49.2764855666  1.98E-06
    50 Broy./Diag. 0.10E+00    5.4     0.00001282       -49.2764816533  3.91E-06
    51 Broy./Diag. 0.10E+00    5.5     0.00001092       -49.2764815557  9.76E-08
    52 Broy./Diag. 0.10E+00    5.5     0.00000867       -49.2764803696  1.19E-06
    53 Broy./Diag. 0.10E+00    5.4     0.00000722       -49.2764808386 -4.69E-07
    54 Broy./Diag. 0.10E+00    5.3     0.00000791       -49.2764803408  4.98E-07
    55 Broy./Diag. 0.10E+00    5.4     0.00000373       -49.2764815688 -1.23E-06
    56 Broy./Diag. 0.10E+00    5.4     0.00000218       -49.2764828417 -1.27E-06
    57 Broy./Diag. 0.10E+00    5.5     0.00000117       -49.2764839315 -1.09E-06
    58 Broy./Diag. 0.10E+00    5.4     0.00000067       -49.2764834966  4.35E-07

  *** SCF run converged in    58 steps ***


  Electronic density on regular grids:         -6.5667273056        3.4332726944
  Core density on regular grids:               10.0000000000        0.0000000000
  Hard and soft densities (Lebedev):          -21.0622923110      -17.6290050665
  Total Rho_soft + Rho1_hard - Rho1_soft      -10.0000145501
  Total charge density (r-space):              -0.0000145501
  Total Rho_soft + Rho0_soft (g-space):        -0.0000146022

  Overlap energy of the core charge distribution:               0.00000845868521
  Self energy of the core charge distribution:                -32.50467561761386
  Core Hamiltonian energy:                                    -13.44036247566935
  Hartree energy:                                              11.43297487884174
  Exchange-correlation energy:                                 -1.63072748672760
  Hartree-Fock Exchange energy:                                -1.87486366234575

  GAPW| Exc from hard and soft atomic rho1:                    -4.26350311621848
  GAPW| local Eh = 1 center integrals:                         -6.99533447552405

  Total energy:                                               -49.27648349657214

 !-----------------------------------------------------------------------------!
                     Mulliken Population Analysis

 #  Atom  Element  Kind  Atomic population                           Net charge
       1     B        1          4.999748                              0.000252
       2     B        1          5.000252                             -0.000252
 # Total charge                             10.000000                 -0.000000

 !-----------------------------------------------------------------------------!

 !-----------------------------------------------------------------------------!
                           Hirshfeld Charges

  #Atom  Element  Kind  Ref Charge     Population                    Net charge
      1       B      1       5.000          4.995                         0.005
      2       B      1       5.000          4.996                         0.004

  Total Charge                                                            0.009
 !-----------------------------------------------------------------------------!


 RI-RPA section
 --------------

  Used number of processes per group:                                          1
  Maximum allowed memory usage per MPI process:                      1024.00 MiB
  RI_INFO| Cholesky decomposition group size:                                  2
  RI_INFO| Number of groups for auxiliary basis functions                     24

  RI_INFO| RI metric:                                                    COULOMB
  RI_INFO| Number of auxiliary basis functions:                               70
  GENERAL_INFO| Number of basis functions:                                    60
  GENERAL_INFO| Number of occupied orbitals:                                   5
  GENERAL_INFO| Number of virtual orbitals:                                   55
  RI_INFO| Total memory for (ia|K) integrals:                           0.15 MiB
  RI_INFO| Total memory for G0W0-(nm|K) integrals:                      1.92 MiB
  RI_INFO| Total memory for (ij|K) integrals:                           0.01 MiB
  RI_INFO| Total memory for (ab|K) integrals:                           1.62 MiB
  RI_INFO| Group size for frequency integration:                              24
  INTEG_INFO| Clenshaw-Curtius quadrature
  INTEG_INFO| Number of integration points:                                  100
  INTEG_INFO| Number of integration points per RPA group:                    100
  MATRIX_INFO| Number row processes:                                           3
  MATRIX_INFO| Number column processes:                                        8
  MATRIX_INFO| Row block size:                                                11
  MATRIX_INFO| Column block size:                                             17
  INTEG_INFO| Scaling parameter:                                         0.20000
  INTEG_INFO| Started with Integration point   1 of 100
  INTEG_INFO| Started with Integration point   2 of 100
  INTEG_INFO| Started with Integration point   3 of 100
  INTEG_INFO| Started with Integration point   4 of 100
  INTEG_INFO| Started with Integration point   5 of 100
  INTEG_INFO| Started with Integration point   6 of 100
  INTEG_INFO| Started with Integration point   7 of 100
  INTEG_INFO| Started with Integration point   8 of 100
  INTEG_INFO| Started with Integration point   9 of 100
  INTEG_INFO| Started with Integration point  10 of 100
  INTEG_INFO| Started with Integration point  11 of 100
  INTEG_INFO| Started with Integration point  12 of 100
  INTEG_INFO| Started with Integration point  13 of 100
  INTEG_INFO| Started with Integration point  14 of 100
  INTEG_INFO| Started with Integration point  15 of 100
  INTEG_INFO| Started with Integration point  16 of 100
  INTEG_INFO| Started with Integration point  17 of 100
  INTEG_INFO| Started with Integration point  18 of 100
  INTEG_INFO| Started with Integration point  19 of 100
  INTEG_INFO| Started with Integration point  20 of 100
  INTEG_INFO| Started with Integration point  21 of 100
  INTEG_INFO| Started with Integration point  22 of 100
  INTEG_INFO| Started with Integration point  23 of 100
  INTEG_INFO| Started with Integration point  24 of 100
  INTEG_INFO| Started with Integration point  25 of 100
  INTEG_INFO| Started with Integration point  26 of 100
  INTEG_INFO| Started with Integration point  27 of 100
  INTEG_INFO| Started with Integration point  28 of 100
  INTEG_INFO| Started with Integration point  29 of 100
  INTEG_INFO| Started with Integration point  30 of 100
  INTEG_INFO| Started with Integration point  31 of 100
  INTEG_INFO| Started with Integration point  32 of 100
  INTEG_INFO| Started with Integration point  33 of 100
  INTEG_INFO| Started with Integration point  34 of 100
  INTEG_INFO| Started with Integration point  35 of 100
  INTEG_INFO| Started with Integration point  36 of 100
  INTEG_INFO| Started with Integration point  37 of 100
  INTEG_INFO| Started with Integration point  38 of 100
  INTEG_INFO| Started with Integration point  39 of 100
  INTEG_INFO| Started with Integration point  40 of 100
  INTEG_INFO| Started with Integration point  41 of 100
  INTEG_INFO| Started with Integration point  42 of 100
  INTEG_INFO| Started with Integration point  43 of 100
  INTEG_INFO| Started with Integration point  44 of 100
  INTEG_INFO| Started with Integration point  45 of 100
  INTEG_INFO| Started with Integration point  46 of 100
  INTEG_INFO| Started with Integration point  47 of 100
  INTEG_INFO| Started with Integration point  48 of 100
  INTEG_INFO| Started with Integration point  49 of 100
  INTEG_INFO| Started with Integration point  50 of 100
  INTEG_INFO| Started with Integration point  51 of 100
  INTEG_INFO| Started with Integration point  52 of 100
  INTEG_INFO| Started with Integration point  53 of 100
  INTEG_INFO| Started with Integration point  54 of 100
  INTEG_INFO| Started with Integration point  55 of 100
  INTEG_INFO| Started with Integration point  56 of 100
  INTEG_INFO| Started with Integration point  57 of 100
  INTEG_INFO| Started with Integration point  58 of 100
  INTEG_INFO| Started with Integration point  59 of 100
  INTEG_INFO| Started with Integration point  60 of 100
  INTEG_INFO| Started with Integration point  61 of 100
  INTEG_INFO| Started with Integration point  62 of 100
  INTEG_INFO| Started with Integration point  63 of 100
  INTEG_INFO| Started with Integration point  64 of 100
  INTEG_INFO| Started with Integration point  65 of 100
  INTEG_INFO| Started with Integration point  66 of 100
  INTEG_INFO| Started with Integration point  67 of 100
  INTEG_INFO| Started with Integration point  68 of 100
  INTEG_INFO| Started with Integration point  69 of 100
  INTEG_INFO| Started with Integration point  70 of 100
  INTEG_INFO| Started with Integration point  71 of 100
  INTEG_INFO| Started with Integration point  72 of 100
  INTEG_INFO| Started with Integration point  73 of 100
  INTEG_INFO| Started with Integration point  74 of 100
  INTEG_INFO| Started with Integration point  75 of 100
  INTEG_INFO| Started with Integration point  76 of 100
  INTEG_INFO| Started with Integration point  77 of 100
  INTEG_INFO| Started with Integration point  78 of 100
  INTEG_INFO| Started with Integration point  79 of 100
  INTEG_INFO| Started with Integration point  80 of 100
  INTEG_INFO| Started with Integration point  81 of 100
  INTEG_INFO| Started with Integration point  82 of 100
  INTEG_INFO| Started with Integration point  83 of 100
  INTEG_INFO| Started with Integration point  84 of 100
  INTEG_INFO| Started with Integration point  85 of 100
  INTEG_INFO| Started with Integration point  86 of 100
  INTEG_INFO| Started with Integration point  87 of 100
  INTEG_INFO| Started with Integration point  88 of 100
[...]
            2 qs_energies
            1 CP2K
full ABBA matrix is ill-defined.                  *
 *  O/|                                                                        *
 * /| |                                                                        *
 * / \                                                     bse_full_diag.F:392 *
 *******************************************************************************


 ===== Routine Calling Stack ===== 

            8 create_hermitian_form_of_ABBA
            7 start_bse_calculation
            6 rpa_num_int
            5 rpa_ri_compute_en
            4 mp2_gpw_main
            3 mp2_main
            2 qs_energies
            1 CP2K

 *******************************************************************************
 *   ___                                                                       *
 *  /   \                                                                      *
 * [ABORT]                                                                     *
 *  \___/  Matrix (A-B) is not positive definite. Hermitian diagonalization of *
 *    |                      full ABBA matrix is ill-defined.                  *
 *  O/|                                                                        *
 * /| |                                                                        *
 * / \     
 *******************************************************************************
 *   ___                                                                       *
 *  /   \                                                                      *
 * [ABORT]                                                                     *
 *  \___/  Matrix (A-B) is not positive definite. Hermitian diagonalization of *
 *    |                      full ABBA matrix is ill-defined.                  *
 *  O/|    *
 *    |                      full ABBA matrix is ill-defined.                  *
 *  O/|                                                                        *
 * /| |                                                                        *
 * / \                                                     bse_full_diag.F:392 *
 *******************************************************************************


 ===== Routine Calling Stack ===== 

            8 create_hermitian_form_of_ABBA
            7 start_bse_calculation
            6 rpa_num_int
            5 rpa_ri_compute_en
            4 mp2_gpw_main
            3 mp2_main
            2 qs_energies
            1 CP2K
*
 *  O/|                                                                        *
 * /| |                                                                        *
 * / \                                                     bse_full_diag.F:392 *
 *******************************************************************************


 ===== Routine Calling Stack ===== 

            8 create_hermitian_form_of_ABBA
            7 start_bse_calculation
            6 rpa_num_int
            5 rpa_ri_compute_en
            4 mp2_gpw_main
            3 mp2_main
            2 qs_energies
            1 CP2K

 *******************************************************************************
 *   ___                                                                       *
 *  /   \                                                                      *
 * [ABORT]                                                                     *
 *  \___/  Matrix (A-B) is not positive definite. Hermitian diagonalization of *
 *    |                      full ABBA matrix is ill-defined.                  *
 *  O/|                                                                        *
 * /| |                                                                        *
 * / \                                                     bse_full_diag.F:392 *
 *******************************************************************************


 ===== Routine Calling Stack ===== 

            8 create_hermitian_form_of_ABBA
            7 start_bse_calculation
                                                                    *
 * /| |                                                                        *
 * / \                                                     bse_full_diag.F:392 *
 *******************************************************************************


 ===== Routine Calling Stack ===== 

            8 create_hermitian_form_of_ABBA
            7 start_bse_calculation
            6 rpa_num_int
            5 rpa_ri_compute_en
            4 mp2_gpw_main
            3 mp2_main
            2 qs_energies
            1 CP2K
            6 rpa_num_int
            5 rpa_ri_compute_en
            4 mp2_gpw_main
            3 mp2_main
            2 qs_energies
            1 CP2K
                                                                    *
 * / \                                                     bse_full_diag.F:392 *
 *******************************************************************************


 ===== Routine Calling Stack ===== 

            8 create_hermitian_form_of_ABBA
            7 start_bse_calculation
            6 rpa_num_int
            5 rpa_ri_compute_en
            4 mp2_gpw_main
            3 mp2_main
            2 qs_energies
            1 CP2K
            4 mp2_gpw_main
            3 mp2_main
            2 qs_energies
            1 CP2K
 *  O/|                                                                        *
 * /| |                                                                        *
 * / \                                                     bse_full_diag.F:392 *
 *******************************************************************************


 ===== Routine Calling Stack ===== 

            8 create_hermitian_form_of_ABBA
            7 start_bse_calculation
            6 rpa_num_int
            5 rpa_ri_compute_en
            4 mp2_gpw_main
            3 mp2_main
            2 qs_energies
            1 CP2K
                                                bse_full_diag.F:392 *
 *******************************************************************************


 ===== Routine Calling Stack ===== 

            8 create_hermitian_form_of_ABBA
            7 start_bse_calculation
            6 rpa_num_int
            5 rpa_ri_compute_en
            4 mp2_gpw_main
            3 mp2_main
            2 qs_energies
            1 CP2K
                                                                    *
 * /| |                                                                        *
 * / \                                                     bse_full_diag.F:392 *
 *******************************************************************************


 ===== Routine Calling Stack ===== 

            8 create_hermitian_form_of_ABBA
            7 start_bse_calculation
            6 rpa_num_int
            5 rpa_ri_compute_en
            4 mp2_gpw_main
            3 mp2_main
            2 qs_energies
            1 CP2K

 *******************************************************************************
 *   ___                                                                       *
 *  /   \                                                                      *
 * [ABORT]                                                                     *
 *  \___/  Matrix (A-B) is not positive definite. Hermitian diagonalization of *
 *    |    
 *******************************************************************************
 *   ___                                                                       *
 *  /   \                                                                      *
 * [ABORT]                                                                     *
 *  \___/  Matrix (A-B) is not positive definite. Hermitian diagonalization of *
 *    |                      full ABBA matrix is ill-defined.                  *
 *  O/|                                                                        *
 * /| |                                                                        *
 * / \                                                     bse_full_diag.F:392 *
 *******************************************************************************


 ===== Routine Calling Stack ===== 

            8 create_hermitian_form_of_ABBA
            7 start_bse_calculation
            6 rpa_num_int
            5 rpa_ri_compute_en
            4 mp2_gpw_main
            3 mp2_main

 *******************************************************************************
 *   ___                                                                       *
 *  /   \                                                                      *
 * [ABORT]                                                                     *
 *  \___/  Matrix (A-B) is not positive definite. Hermitian diagonalization of *
 *    |                      full ABBA matrix is ill-defined.                  *
 *  O/|                                                                        *
 * /| |                                                                        *
 * / \                                                     bse_full_diag.F:392 *
 *******************************************************************************


 ===== Routine Calling Stack ===== 

            8 create_hermitian_form_of_ABBA
            7 start_bse_calculation
            6 rpa_num_int
            5 rpa_ri_compute_en
            4 mp2_gpw_main
            3 mp2_main
            2 qs_energies
            1 CP2K

 *******************************************************************************
 *   ___                                                                       *
 *  /   \                                                                      *
 * [ABORT]                                                                     *
 *  \___/  Matrix (A-B) is not positive definite. Hermitian diagonalization of *
 *    |                      full ABBA matrix is ill-defined.                  *
 *  O/|                                                                        *
 * /| |                                                                        *
 * / \                                                     bse_full_diag.F:392 *
 *******************************************************************************


 ===== Routine Calling Stack ===== 

            8 create_hermitian_form_of_ABBA
            7 start_bse_calculation
            6 rpa_num_int
            5 rpa_ri_compute_en
            4 mp2_gpw_main
            3 mp2_main
            2 qs_energies
            1 CP2K

 *******************************************************************************
 *   ___                                                                       *
 *  /   \                                                                      *
 * [ABORT]                                                                     *
 *  \___/  Matrix (A-B) is not positive definite. Hermitian diagonalization of *
 *    |                      full ABBA matrix is ill-defined.                  *
 *  O/|                                                                        *
 * /| |                                                                        *
 * / \                                                     bse_full_diag.F:392 *
 *******************************************************************************


 ===== Routine Calling Stack ===== 

            8 create_hermitian_form_of_ABBA
            7 start_bse_calculation
            6 rpa_num_int
            5 rpa_ri_compute_en
            4 mp2_gpw_main
            3 mp2_main
            2 qs_energies
            1 CP2K

 *******************************************************************************
 *   ___                                                                       *
 *  /   \                                                                      *
 * [ABORT]                                                                     *
 *  \___/  Matrix (A-B) is not positive definite. Hermitian diagonalization of *
 *    |                      full ABBA matrix is ill-defined.                  *
 *  O/|                                                                        *
 * /| |                                                                        *
 * / \                                                     bse_full_diag.F:392 *
 *******************************************************************************


 ===== Routine Calling Stack ===== 

            8 create_hermitian_form_of_ABBA
            7 start_bse_calculation
            6 rpa_num_int
            5 rpa_ri_compute_en
            4 mp2_gpw_main
            3 mp2_main
            2 qs_energies
            1 CP2K

 *******************************************************************************
 *   ___                                                                       *
 *  /   \                                                                      *
 * [ABORT]                                                                     *
 *  \___/  Matrix (A-B) is not positive definite. Hermitian diagonalization of *
 *    |                      full ABBA matrix is ill-defined.                  *
 *  O/|                                                                        *
 * /| |                                                                        *
 * / \                                                     bse_full_diag.F:392 *
 *******************************************************************************


 ===== Routine Calling Stack ===== 

            8 create_hermitian_form_of_ABBA
            7 start_bse_calculation
            6 rpa_num_int
            5 rpa_ri_compute_en
            4 mp2_gpw_main
            3 mp2_main
            2 qs_energies
            1 CP2K

 *******************************************************************************
 *   ___                                                                       *
 *  /   \                                                                      *
 * [ABORT]                                                                     *
 *  \___/  Matrix (A-B) is not positive definite. Hermitian diagonalization of *
 *    |                      full ABBA matrix is ill-defined.                  *
 *  O/|                                                                        *
 * /| |                                                                        *
 * / \                                                     bse_full_diag.F:392 *
 *******************************************************************************


 ===== Routine Calling Stack ===== 

            8 create_hermitian_form_of_ABBA
            7 start_bse_calculation
            6 rpa_num_int
            5 rpa_ri_compute_en
            4 mp2_gpw_main
            3 mp2_main
            2 qs_energies
            1 CP2K

 *******************************************************************************
 *   ___                                                                       *
 *  /   \                                                                      *
 * [ABORT]                                                                     *
 *  \___/  Matrix (A-B) is not positive definite. Hermitian diagonalization of *
 *    |                      full ABBA matrix is ill-defined.                  *
 *  O/|                                                                        *
 * /| |                                                                        *
 * / \                                                     bse_full_diag.F:392 *
 *******************************************************************************


 ===== Routine Calling Stack ===== 

            8 create_hermitian_form_of_ABBA
            7 start_bse_calculation
            6 rpa_num_int
            5 rpa_ri_compute_en
            4 mp2_gpw_main
            3 mp2_main
            2 qs_energies
            1 CP2K
                  full ABBA matrix is ill-defined.                  *
 *  O/|                                                                        *
 * /| |                                                                        *
 * / \                                                     bse_full_diag.F:392 *
 *******************************************************************************


 ===== Routine Calling Stack ===== 

            8 create_hermitian_form_of_ABBA
            7 start_bse_calculation
            6 rpa_num_int
            5 rpa_ri_compute_en
            4 mp2_gpw_main
            3 mp2_main
            2 qs_energies
            1 CP2K

 *******************************************************************************
 *   ___                                                                       *
 *  /   \                                                                      *
 * [ABORT]                                                                     *
 *  \___/  Matrix (A-B) is not positive definite. Hermitian diagonalization of *
 *    |                      full ABBA matrix is ill-defined.                  *
 *  O/|                                                                        *
 * /| |                                                                        *
 * / \                                                     bse_full_diag.F:392 *
 *******************************************************************************


 ===== Routine Calling Stack ===== 

            8 create_hermitian_form_of_ABBA
            7 start_bse_calculation
            6 rpa_num_int
            5 rpa_ri_compute_en
            4 mp2_gpw_main
            3 mp2_main
            2 qs_energies
            1 CP2K

 *******************************************************************************
 *   ___                                                                       *
 *  /   \                                                                      *
 * [ABORT]                                                                     *
 *  \___/  Matrix (A-B) is not positive definite. Hermitian diagonalization of *
 *    |                      full ABBA matrix is ill-defined.                  *
 *  O/|                                                                        *
 * /| |                                                                        *
 * / \                                                     bse_full_diag.F:392 *
 *******************************************************************************


 ===== Routine Calling Stack ===== 

            8 create_hermitian_form_of_ABBA
            7 start_bse_calculation
            6 rpa_num_int
            5 rpa_ri_compute_en
            4 mp2_gpw_main
            3 mp2_main
            2 qs_energies
            1 CP2K
            2 qs_energies
            1 CP2K

 *******************************************************************************
 *   ___                                                                       *
 *  /   \                                                                      *
 * [ABORT]                                                                     *
 *  \___/  Matrix (A-B) is not positive definite. Hermitian diagonalization of *
 *    |                      full ABBA matrix is ill-defined.                  *
 *  O/|                                                                        *
 * /| |                                                                        *
 * / \                                                     bse_full_diag.F:392 *
 *******************************************************************************


 ===== Routine Calling Stack ===== 

            8 create_hermitian_form_of_ABBA
            7 start_bse_calculation
            6 rpa_num_int
            5 rpa_ri_compute_en
            4 mp2_gpw_main
            3 mp2_main
            2 qs_energies
            1 CP2K
