 DBCSR| CPU Multiplication driver                                           BLAS (U)
 DBCSR| Multrec recursion limit                                              512 (U)
 DBCSR| Multiplication stack size                                           1000 (D)
 DBCSR| Maximum elements for images                                    UNLIMITED (U)
 DBCSR| Multiplicative factor virtual images                                   1 (U)
 DBCSR| Use multiplication densification                                       T (D)
 DBCSR| Multiplication size stacks                                             3 (U)
 DBCSR| Use memory pool for CPU allocation                                     F (U)
 DBCSR| Number of 3D layers                                               SINGLE (U)
 DBCSR| Use MPI memory allocation                                              F (U)
 DBCSR| Use RMA algorithm                                                      F (U)
 DBCSR| Use Communication thread                                               T (U)
 DBCSR| Communication thread load                                             75 (D)
 DBCSR| MPI: My process id                                                     0
 DBCSR| MPI: Number of processes                                              48
 DBCSR| OMP: Current number of threads                                         4
 DBCSR| OMP: Max number of threads                                             4
 DBCSR| Split modifier for TAS multiplication algorithm                  1.0E+00 (U)


  **** **** ******  **  PROGRAM STARTED AT               2025-03-26 06:46:48.598
 ***** ** ***  *** **   PROGRAM STARTED ON                          i01r04c01s05
 **    ****   ******    PROGRAM STARTED BY                               di38fab
 ***** **    ** ** **   PROGRAM PROCESS ID                               2850352
  **** **  *******  **  PROGRAM STARTED IN /hppfs/scratch/04/di38fab/05_MOL/W4-1
                                           1+ALK/o2/TZVP/GW+BSE/1e-4

 CP2K| version string:                 CP2K version 2025.1 (Development Version)
 CP2K| source code revision number:                                  git:d2e611a
 CP2K| cp2kflags: omp libint fftw3 libxc parallel scalapack max_contr=4         
 CP2K| is freely available from                            https://www.cp2k.org/
 CP2K| Program compiled at                       Thu 06 Mar 2025 05:09:20 PM CET
 CP2K| Program compiled on                                               login02
 CP2K| Program compiled for                                        Supermuc-foss
 CP2K| Data directory path                  /hppfs/work/pn36zo/di38fab/cp2k/data
 CP2K| Input file name                                                    GW.inp

 GLOBAL| Force Environment number                                              1
 GLOBAL| Basis set file name            /hppfs/scratch/04/di38fab/04_TMD/BASIS_A
 GLOBAL| Potential file name            /hppfs/work/pn36zo/di38fab/cp2k/data/ALL
 GLOBAL| MM Potential file name                                     MM_POTENTIAL
 GLOBAL| Coordinate file name                                      __STD_INPUT__
 GLOBAL| Method name                                                        CP2K
 GLOBAL| Project name                                                       MoS2
 GLOBAL| Run type                                                         ENERGY
 GLOBAL| FFT library                                                       FFTW3
 GLOBAL| Diagonalization library                                       ScaLAPACK
 GLOBAL| DGEMM library                                                      BLAS
 GLOBAL| Orthonormality check for eigenvectors                          DISABLED
 GLOBAL| Matrix multiplication library                                 ScaLAPACK
 GLOBAL| All-to-all communication in single precision                          F
 GLOBAL| FFTs using library dependent lengths                                  F
 GLOBAL| Grid backend                                                       AUTO
 GLOBAL| Global print level                                               MEDIUM
 GLOBAL| MPI I/O enabled                                                       T
 GLOBAL| Total number of message passing processes                            48
 GLOBAL| Number of threads for this process                                    4
 GLOBAL| This output is from process                                           0
 GLOBAL| OpenMP stack size per thread (OMP_STACKSIZE)                    default
 GLOBAL| CPU model name             Intel(R) Xeon(R) Platinum 8174 CPU @ 3.10GHz

 MEMORY| system memory details [Kb]
 MEMORY|                        rank 0           min           max       average
 MEMORY| MemTotal             98436660      98436660      98436708      98436672
 MEMORY| MemFree              84006656      84006656      86038760      85076032
 MEMORY| Buffers                     0             0             0             0
 MEMORY| Cached                2414160       2354796       2414160       2380150
 MEMORY| Slab                  1197276        886912       1197276       1028519
 MEMORY| SReclaimable           269348        189524        269348        231082
 MEMORY| MemLikelyFree        86690164      86690164      88584320      87687264


 *** Fundamental physical constants (SI units) ***

 *** Literature: B. J. Mohr and B. N. Taylor,
 ***             CODATA recommended values of the fundamental physical
 ***             constants: 2006, Web Version 5.1
 ***             http://physics.nist.gov/constants

 Speed of light in vacuum [m/s]                             2.99792458000000E+08
 Magnetic constant or permeability of vacuum [N/A**2]       1.25663706143592E-06
 Electric constant or permittivity of vacuum [F/m]          8.85418781762039E-12
 Planck constant (h) [J*s]                                  6.62606896000000E-34
 Planck constant (h-bar) [J*s]                              1.05457162825177E-34
 Elementary charge [C]                                      1.60217648700000E-19
 Electron mass [kg]                                         9.10938215000000E-31
 Electron g factor [ ]                                     -2.00231930436220E+00
 Proton mass [kg]                                           1.67262163700000E-27
 Fine-structure constant                                    7.29735253760000E-03
 Rydberg constant [1/m]                                     1.09737315685270E+07
 Avogadro constant [1/mol]                                  6.02214179000000E+23
 Boltzmann constant [J/K]                                   1.38065040000000E-23
 Atomic mass unit [kg]                                      1.66053878200000E-27
 Bohr radius [m]                                            5.29177208590000E-11

 *** Conversion factors ***

 [u] -> [a.u.]                                              1.82288848426455E+03
 [Angstrom] -> [Bohr] = [a.u.]                              1.88972613288564E+00
 [a.u.] = [Bohr] -> [Angstrom]                              5.29177208590000E-01
 [a.u.] -> [s]                                              2.41888432650478E-17
 [a.u.] -> [fs]                                             2.41888432650478E-02
 [a.u.] -> [J]                                              4.35974393937059E-18
 [a.u.] -> [N]                                              8.23872205491840E-08
 [a.u.] -> [K]                                              3.15774647902944E+05
 [a.u.] -> [kJ/mol]                                         2.62549961709828E+03
 [a.u.] -> [kcal/mol]                                       6.27509468713739E+02
 [a.u.] -> [Pa]                                             2.94210107994716E+13
 [a.u.] -> [bar]                                            2.94210107994716E+08
 [a.u.] -> [atm]                                            2.90362800883016E+08
 [a.u.] -> [eV]                                             2.72113838565563E+01
 [a.u.] -> [Hz]                                             6.57968392072181E+15
 [a.u.] -> [1/cm] (wave numbers)                            2.19474631370540E+05
 [a.u./Bohr**2] -> [1/cm]                                   5.14048714338585E+03
 

 CELL_TOP| Volume [angstrom^3]:                                     27000.000000
 CELL_TOP| Vector a [angstrom    30.000     0.000     0.000   |a| =    30.000000
 CELL_TOP| Vector b [angstrom     0.000    30.000     0.000   |b| =    30.000000
 CELL_TOP| Vector c [angstrom     0.000     0.000    30.000   |c| =    30.000000
 CELL_TOP| Angle (b,c), alpha [degree]:                                90.000000
 CELL_TOP| Angle (a,c), beta  [degree]:                                90.000000
 CELL_TOP| Angle (a,b), gamma [degree]:                                90.000000
 CELL_TOP| Numerically orthorhombic:                                         YES
 CELL_TOP| Periodicity                                                      NONE

 GENERATE|  Preliminary Number of Bonds generated:                             0
 GENERATE|  Achieved consistency in connectivity generation.

 CELL| Volume [angstrom^3]:                                         27000.000000
 CELL| Vector a [angstrom]:      30.000     0.000     0.000   |a| =    30.000000
 CELL| Vector b [angstrom]:       0.000    30.000     0.000   |b| =    30.000000
 CELL| Vector c [angstrom]:       0.000     0.000    30.000   |c| =    30.000000
 CELL| Angle (b,c), alpha [degree]:                                    90.000000
 CELL| Angle (a,c), beta  [degree]:                                    90.000000
 CELL| Angle (a,b), gamma [degree]:                                    90.000000
 CELL| Numerically orthorhombic:                                             YES
 CELL| Periodicity                                                          NONE

 CELL_REF| Volume [angstrom^3]:                                     27000.000000
 CELL_REF| Vector a [angstrom    30.000     0.000     0.000   |a| =    30.000000
 CELL_REF| Vector b [angstrom     0.000    30.000     0.000   |b| =    30.000000
 CELL_REF| Vector c [angstrom     0.000     0.000    30.000   |c| =    30.000000
 CELL_REF| Angle (b,c), alpha [degree]:                                90.000000
 CELL_REF| Angle (a,c), beta  [degree]:                                90.000000
 CELL_REF| Angle (a,b), gamma [degree]:                                90.000000
 CELL_REF| Numerically orthorhombic:                                         YES
 CELL_REF| Periodicity                                                      NONE

 *******************************************************************************
 *******************************************************************************
 **                                                                           **
 **     #####                         ##              ##                      **
 **    ##   ##            ##          ##              ##                      **
 **   ##     ##                       ##            ######                    **
 **   ##     ##  ##   ##  ##   #####  ##  ##   ####   ##    #####    #####    **
 **   ##     ##  ##   ##  ##  ##      ## ##   ##      ##   ##   ##  ##   ##   **
 **   ##  ## ##  ##   ##  ##  ##      ####     ###    ##   ######   ######    **
 **    ##  ###   ##   ##  ##  ##      ## ##      ##   ##   ##       ##        **
 **     #######   #####   ##   #####  ##  ##  ####    ##    #####   ##        **
 **           ##                                                    ##        **
 **                                                                           **
 **                                                ... make the atoms dance   **
 **                                                                           **
 **            Copyright (C) by CP2K developers group (2000-2025)             **
 **                      J. Chem. Phys. 152, 194103 (2020)                    **
 **                                                                           **
 *******************************************************************************

 DFT| Spin restricted Kohn-Sham (RKS) calculation                            RKS
 DFT| Multiplicity                                                             1
 DFT| Number of spin states                                                    1
 DFT| Charge                                                                   0
 DFT| Self-interaction correction (SIC)                                       NO
 DFT| Cutoffs: density                                              1.000000E-10
 DFT|          gradient                                             1.000000E-10
 DFT|          tau                                                  1.000000E-10
 DFT|          cutoff_smoothing_range                               0.000000E+00
 DFT| XC density smoothing                                                  NONE
 DFT| XC derivatives                                                          PW

 FUNCTIONAL| PBE:
 FUNCTIONAL| J.P.Perdew, K.Burke, M.Ernzerhof, Phys. Rev. Letter, vol. 77, n 18,
 FUNCTIONAL|  pp. 3865-3868, (1996)sx=0.750sc=1.000{spin unpolarized}           


 QS| Method:                                                                GAPW
 QS| Density plane wave grid type                        NON-SPHERICAL FULLSPACE
 QS| Number of grid levels:                                                    4
 QS| Density cutoff [a.u.]:                                                250.0
 QS| Multi grid cutoff [a.u.]: 1) grid level                               250.0
 QS|                           2) grid level                                83.3
 QS|                           3) grid level                                27.8
 QS|                           4) grid level                                 9.3
 QS| Grid level progression factor:                                          3.0
 QS| Relative density cutoff [a.u.]:                                        50.0
 QS| Interaction thresholds: eps_pgf_orb:                                1.0E-12
 QS|                         eps_filter_matrix:                          0.0E+00
 QS|                         eps_core_charge:                            1.0E-14
 QS|                         eps_rho_gspace:                             1.0E-12
 QS|                         eps_rho_rspace:                             1.0E-12
 QS|                         eps_gvg_rspace:                             1.0E-06
 QS|                         eps_ppl:                                    1.0E-02
 QS|                         eps_ppnl:                                   1.0E-08
 QS| GAPW|      One center basis from orbital basis primitives
 QS| GAPW|                   eps_fit:                                    1.0E-04
 QS| GAPW|                   eps_iso:                                    1.0E-12
 QS| GAPW|                   eps_svd:                                    1.0E-08
 QS| GAPW|                   eps_cpc:                                    1.0E-12
 QS| GAPW|   atom-r-grid: quadrature:                                     GC_LOG
 QS| GAPW|      atom-s-grid:  max l :                                          8
 QS| GAPW|      max_l_rho0 :                                                   2


 ATOMIC KIND INFORMATION

  1. Atomic kind: O                                     Number of atoms:       2

     Orbital Basis Set                                        aug-TZVP-MOLOPT-ae

       Number of orbital shell sets:                                           2
       Number of orbital shells:                                              16
       Number of primitive Cartesian functions:                               13
       Number of Cartesian basis functions:                                   71
       Number of spherical basis functions:                                   56
       Norm type:                                                              2

       Normalised Cartesian orbitals:

                        Set   Shell   Orbital            Exponent    Coefficient

                          1       1    1s                0.050000       0.000000
                                                         0.148931       0.008771
                                                         0.454433       0.026241
                                                         1.335408       0.005818
                                                         4.395399       0.718493
                                                        12.309450       2.903007
                                                        62.914956       1.320675

                          1       2    2s                0.050000       0.000000
                                                         0.148931       0.036066
                                                         0.454433       0.073646
                                                         1.335408       0.667362
                                                         4.395399      -0.111917
                                                        12.309450      -0.053902
                                                        62.914956      -0.747743

                          1       3    3s                0.050000       0.000000
                                                         0.148931       0.072341
                                                         0.454433       0.339134
                                                         1.335408      -0.296204
                                                         4.395399      -0.066370
                                                        12.309450      -0.509964
                                                        62.914956       0.182030

                          1       4    4s                0.050000       0.000000
                                                         0.148931       0.257390
                                                         0.454433      -0.327789
                                                         1.335408      -0.186757
                                                         4.395399      -0.014958
                                                        12.309450      -0.201401
                                                        62.914956       1.590188

                          1       5    5s                0.050000       0.095896
                                                         0.148931      -0.062439
                                                         0.454433       0.011784
                                                         1.335408      -0.100924
                                                         4.395399       0.000000
                                                        12.309450       0.000000
                                                        62.914956       0.000000

                          1       6    2px               0.050000       0.000000
                                                         0.148931       0.002211
                                                         0.454433      -0.015509
                                                         1.335408       1.487193
                                                         4.395399       2.867225
                                                        12.309450       3.872733
                                                        62.914956     -23.794765
                          1       6    2py               0.050000       0.000000
                                                         0.148931       0.002211
                                                         0.454433      -0.015509
                                                         1.335408       1.487193
                                                         4.395399       2.867225
                                                        12.309450       3.872733
                                                        62.914956     -23.794765
                          1       6    2pz               0.050000       0.000000
                                                         0.148931       0.002211
                                                         0.454433      -0.015509
                                                         1.335408       1.487193
                                                         4.395399       2.867225
                                                        12.309450       3.872733
                                                        62.914956     -23.794765

                          1       7    3px               0.050000       0.000000
                                                         0.148931       0.008518
                                                         0.454433       0.481961
                                                         1.335408       0.085170
                                                         4.395399       0.441215
                                                        12.309450      -1.837950
                                                        62.914956      36.698597
                          1       7    3py               0.050000       0.000000
                                                         0.148931       0.008518
                                                         0.454433       0.481961
                                                         1.335408       0.085170
                                                         4.395399       0.441215
                                                        12.309450      -1.837950
                                                        62.914956      36.698597
                          1       7    3pz               0.050000       0.000000
                                                         0.148931       0.008518
                                                         0.454433       0.481961
                                                         1.335408       0.085170
                                                         4.395399       0.441215
                                                        12.309450      -1.837950
                                                        62.914956      36.698597

                          1       8    4px               0.050000       0.000000
                                                         0.148931       0.138320
                                                         0.454433      -0.034294
                                                         1.335408      -0.042535
                                                         4.395399      -0.295522
                                                        12.309450       0.600610
                                                        62.914956     -10.152534
                          1       8    4py               0.050000       0.000000
                                                         0.148931       0.138320
                                                         0.454433      -0.034294
                                                         1.335408      -0.042535
                                                         4.395399      -0.295522
                                                        12.309450       0.600610
                                                        62.914956     -10.152534
                          1       8    4pz               0.050000       0.000000
                                                         0.148931       0.138320
                                                         0.454433      -0.034294
                                                         1.335408      -0.042535
                                                         4.395399      -0.295522
                                                        12.309450       0.600610
                                                        62.914956     -10.152534

                          1       9    5px               0.050000      -0.000964
                                                         0.148931       0.027417
                                                         0.454433       0.328542
                                                         1.335408       0.651611
                                                         4.395399       0.000000
                                                        12.309450       0.000000
                                                        62.914956       0.000000
                          1       9    5py               0.050000      -0.000964
                                                         0.148931       0.027417
                                                         0.454433       0.328542
                                                         1.335408       0.651611
                                                         4.395399       0.000000
                                                        12.309450       0.000000
                                                        62.914956       0.000000
                          1       9    5pz               0.050000      -0.000964
                                                         0.148931       0.027417
                                                         0.454433       0.328542
                                                         1.335408       0.651611
                                                         4.395399       0.000000
                                                        12.309450       0.000000
                                                        62.914956       0.000000

                          1      10    3dx2              0.050000       0.000000
                                                         0.148931       0.011799
                                                         0.454433       0.037044
                                                         1.335408       1.177796
                                                         4.395399      13.187048
                                                        12.309450      -3.718320
                                                        62.914956     245.407483
                          1      10    3dxy              0.050000       0.000000
                                                         0.148931       0.020436
                                                         0.454433       0.064161
                                                         1.335408       2.040003
                                                         4.395399      22.840637
                                                        12.309450      -6.440319
                                                        62.914956     425.058229
                          1      10    3dxz              0.050000       0.000000
                                                         0.148931       0.020436
                                                         0.454433       0.064161
                                                         1.335408       2.040003
                                                         4.395399      22.840637
                                                        12.309450      -6.440319
                                                        62.914956     425.058229
                          1      10    3dy2              0.050000       0.000000
                                                         0.148931       0.011799
                                                         0.454433       0.037044
                                                         1.335408       1.177796
                                                         4.395399      13.187048
                                                        12.309450      -3.718320
                                                        62.914956     245.407483
                          1      10    3dyz              0.050000       0.000000
                                                         0.148931       0.020436
                                                         0.454433       0.064161
                                                         1.335408       2.040003
                                                         4.395399      22.840637
                                                        12.309450      -6.440319
                                                        62.914956     425.058229
                          1      10    3dz2              0.050000       0.000000
                                                         0.148931       0.011799
                                                         0.454433       0.037044
                                                         1.335408       1.177796
                                                         4.395399      13.187048
                                                        12.309450      -3.718320
                                                        62.914956     245.407483

                          1      11    4dx2              0.050000       0.000000
                                                         0.148931      -0.006399
                                                         0.454433       0.341143
                                                         1.335408       1.062793
                                                         4.395399      -7.656182
                                                        12.309450       6.262545
                                                        62.914956    -198.939864
                          1      11    4dxy              0.050000       0.000000
                                                         0.148931      -0.011084
                                                         0.454433       0.590877
                                                         1.335408       1.840811
                                                         4.395399     -13.260897
                                                        12.309450      10.847045
                                                        62.914956    -344.573952
                          1      11    4dxz              0.050000       0.000000
                                                         0.148931      -0.011084
                                                         0.454433       0.590877
                                                         1.335408       1.840811
                                                         4.395399     -13.260897
                                                        12.309450      10.847045
                                                        62.914956    -344.573952
                          1      11    4dy2              0.050000       0.000000
                                                         0.148931      -0.006399
                                                         0.454433       0.341143
                                                         1.335408       1.062793
                                                         4.395399      -7.656182
                                                        12.309450       6.262545
                                                        62.914956    -198.939864
                          1      11    4dyz              0.050000       0.000000
                                                         0.148931      -0.011084
                                                         0.454433       0.590877
                                                         1.335408       1.840811
                                                         4.395399     -13.260897
                                                        12.309450      10.847045
                                                        62.914956    -344.573952
                          1      11    4dz2              0.050000       0.000000
                                                         0.148931      -0.006399
                                                         0.454433       0.341143
                                                         1.335408       1.062793
                                                         4.395399      -7.656182
                                                        12.309450       6.262545
                                                        62.914956    -198.939864

                          1      12    5dx2              0.050000      -0.000167
                                                         0.148931       0.000910
                                                         0.454433       0.391605
                                                         1.335408       0.205296
                                                         4.395399       0.000000
                                                        12.309450       0.000000
                                                        62.914956       0.000000
                          1      12    5dxy              0.050000      -0.000290
                                                         0.148931       0.001577
                                                         0.454433       0.678279
                                                         1.335408       0.355584
                                                         4.395399       0.000000
                                                        12.309450       0.000000
                                                        62.914956       0.000000
                          1      12    5dxz              0.050000      -0.000290
                                                         0.148931       0.001577
                                                         0.454433       0.678279
                                                         1.335408       0.355584
                                                         4.395399       0.000000
                                                        12.309450       0.000000
                                                        62.914956       0.000000
                          1      12    5dy2              0.050000      -0.000167
                                                         0.148931       0.000910
                                                         0.454433       0.391605
                                                         1.335408       0.205296
                                                         4.395399       0.000000
                                                        12.309450       0.000000
                                                        62.914956       0.000000
                          1      12    5dyz              0.050000      -0.000290
                                                         0.148931       0.001577
                                                         0.454433       0.678279
                                                         1.335408       0.355584
                                                         4.395399       0.000000
                                                        12.309450       0.000000
                                                        62.914956       0.000000
                          1      12    5dz2              0.050000      -0.000167
                                                         0.148931       0.000910
                                                         0.454433       0.391605
                                                         1.335408       0.205296
                                                         4.395399       0.000000
                                                        12.309450       0.000000
                                                        62.914956       0.000000

                          1      13    4fx3              0.050000       0.000000
                                                         0.148931       0.001654
                                                         0.454433       0.066745
                                                         1.335408       2.406605
                                                         4.395399      -5.031344
                                                        12.309450      16.622131
                                                        62.914956       4.775823
                          1      13    4fx2y             0.050000       0.000000
                                                         0.148931       0.003699
                                                         0.454433       0.149247
                                                         1.335408       5.381333
                                                         4.395399     -11.250428
                                                        12.309450      37.168214
                                                        62.914956      10.679064
                          1      13    4fx2z             0.050000       0.000000
                                                         0.148931       0.003699
                                                         0.454433       0.149247
                                                         1.335408       5.381333
                                                         4.395399     -11.250428
                                                        12.309450      37.168214
                                                        62.914956      10.679064
                          1      13    4fxy2             0.050000       0.000000
                                                         0.148931       0.003699
                                                         0.454433       0.149247
                                                         1.335408       5.381333
                                                         4.395399     -11.250428
                                                        12.309450      37.168214
                                                        62.914956      10.679064
                          1      13    4fxyz             0.050000       0.000000
                                                         0.148931       0.006406
                                                         0.454433       0.258503
                                                         1.335408       9.320743
                                                         4.395399     -19.486313
                                                        12.309450      64.377235
                                                        62.914956      18.496681
                          1      13    4fxz2             0.050000       0.000000
                                                         0.148931       0.003699
                                                         0.454433       0.149247
                                                         1.335408       5.381333
                                                         4.395399     -11.250428
                                                        12.309450      37.168214
                                                        62.914956      10.679064
                          1      13    4fy3              0.050000       0.000000
                                                         0.148931       0.001654
                                                         0.454433       0.066745
                                                         1.335408       2.406605
                                                         4.395399      -5.031344
                                                        12.309450      16.622131
                                                        62.914956       4.775823
                          1      13    4fy2z             0.050000       0.000000
                                                         0.148931       0.003699
                                                         0.454433       0.149247
                                                         1.335408       5.381333
                                                         4.395399     -11.250428
                                                        12.309450      37.168214
                                                        62.914956      10.679064
                          1      13    4fyz2             0.050000       0.000000
                                                         0.148931       0.003699
                                                         0.454433       0.149247
                                                         1.335408       5.381333
                                                         4.395399     -11.250428
                                                        12.309450      37.168214
                                                        62.914956      10.679064
                          1      13    4fz3              0.050000       0.000000
                                                         0.148931       0.001654
                                                         0.454433       0.066745
                                                         1.335408       2.406605
                                                         4.395399      -5.031344
                                                        12.309450      16.622131
                                                        62.914956       4.775823

                          1      14    5fx3              0.050000      -0.000035
                                                         0.148931       0.000216
                                                         0.454433       0.256015
                                                         1.335408      -0.160820
                                                         4.395399       0.000000
                                                        12.309450       0.000000
                                                        62.914956       0.000000
                          1      14    5fx2y             0.050000      -0.000077
                                                         0.148931       0.000483
                                                         0.454433       0.572467
                                                         1.335408      -0.359605
                                                         4.395399       0.000000
                                                        12.309450       0.000000
                                                        62.914956       0.000000
                          1      14    5fx2z             0.050000      -0.000077
                                                         0.148931       0.000483
                                                         0.454433       0.572467
                                                         1.335408      -0.359605
                                                         4.395399       0.000000
                                                        12.309450       0.000000
                                                        62.914956       0.000000
                          1      14    5fxy2             0.050000      -0.000077
                                                         0.148931       0.000483
                                                         0.454433       0.572467
                                                         1.335408      -0.359605
                                                         4.395399       0.000000
                                                        12.309450       0.000000
                                                        62.914956       0.000000
                          1      14    5fxyz             0.050000      -0.000134
                                                         0.148931       0.000837
                                                         0.454433       0.991542
                                                         1.335408      -0.622854
                                                         4.395399       0.000000
                                                        12.309450       0.000000
                                                        62.914956       0.000000
                          1      14    5fxz2             0.050000      -0.000077
                                                         0.148931       0.000483
                                                         0.454433       0.572467
                                                         1.335408      -0.359605
                                                         4.395399       0.000000
                                                        12.309450       0.000000
                                                        62.914956       0.000000
                          1      14    5fy3              0.050000      -0.000035
                                                         0.148931       0.000216
                                                         0.454433       0.256015
                                                         1.335408      -0.160820
                                                         4.395399       0.000000
                                                        12.309450       0.000000
                                                        62.914956       0.000000
                          1      14    5fy2z             0.050000      -0.000077
                                                         0.148931       0.000483
                                                         0.454433       0.572467
                                                         1.335408      -0.359605
                                                         4.395399       0.000000
                                                        12.309450       0.000000
                                                        62.914956       0.000000
                          1      14    5fyz2             0.050000      -0.000077
                                                         0.148931       0.000483
                                                         0.454433       0.572467
                                                         1.335408      -0.359605
                                                         4.395399       0.000000
                                                        12.309450       0.000000
                                                        62.914956       0.000000
                          1      14    5fz3              0.050000      -0.000035
                                                         0.148931       0.000216
                                                         0.454433       0.256015
                                                         1.335408      -0.160820
                                                         4.395399       0.000000
                                                        12.309450       0.000000
                                                        62.914956       0.000000

                          1      15    5gx4              0.050000       0.000008
                                                         0.148931       0.000769
                                                         0.454433       0.118509
                                                         1.335408       0.001274
                                                         4.395399       0.000000
                                                        12.309450       0.000000
                                                        62.914956       0.000000
                          1      15    5gx3y             0.050000       0.000022
                                                         0.148931       0.002034
                                                         0.454433       0.313545
                                                         1.335408       0.003370
                                                         4.395399       0.000000
                                                        12.309450       0.000000
                                                        62.914956       0.000000
                          1      15    5gx3z             0.050000       0.000022
                                                         0.148931       0.002034
                                                         0.454433       0.313545
                                                         1.335408       0.003370
                                                         4.395399       0.000000
                                                        12.309450       0.000000
                                                        62.914956       0.000000
                          1      15    5gx2y2            0.050000       0.000029
                                                         0.148931       0.002626
                                                         0.454433       0.404785
                                                         1.335408       0.004351
                                                         4.395399       0.000000
                                                        12.309450       0.000000
                                                        62.914956       0.000000
                          1      15    5gx2yz            0.050000       0.000050
                                                         0.148931       0.004548
                                                         0.454433       0.701109
                                                         1.335408       0.007536
                                                         4.395399       0.000000
                                                        12.309450       0.000000
                                                        62.914956       0.000000
                          1      15    5gx2z2            0.050000       0.000029
                                                         0.148931       0.002626
                                                         0.454433       0.404785
                                                         1.335408       0.004351
                                                         4.395399       0.000000
                                                        12.309450       0.000000
                                                        62.914956       0.000000
                          1      15    5gxy3             0.050000       0.000022
                                                         0.148931       0.002034
                                                         0.454433       0.313545
                                                         1.335408       0.003370
                                                         4.395399       0.000000
                                                        12.309450       0.000000
                                                        62.914956       0.000000
                          1      15    5gxy2z            0.050000       0.000050
                                                         0.148931       0.004548
                                                         0.454433       0.701109
                                                         1.335408       0.007536
                                                         4.395399       0.000000
                                                        12.309450       0.000000
                                                        62.914956       0.000000
                          1      15    5gxyz2            0.050000       0.000050
                                                         0.148931       0.004548
                                                         0.454433       0.701109
                                                         1.335408       0.007536
                                                         4.395399       0.000000
                                                        12.309450       0.000000
                                                        62.914956       0.000000
                          1      15    5gxz3             0.050000       0.000022
                                                         0.148931       0.002034
                                                         0.454433       0.313545
                                                         1.335408       0.003370
                                                         4.395399       0.000000
                                                        12.309450       0.000000
                                                        62.914956       0.000000
                          1      15    5gy4              0.050000       0.000008
                                                         0.148931       0.000769
                                                         0.454433       0.118509
                                                         1.335408       0.001274
                                                         4.395399       0.000000
                                                        12.309450       0.000000
                                                        62.914956       0.000000
                          1      15    5gy3z             0.050000       0.000022
                                                         0.148931       0.002034
                                                         0.454433       0.313545
                                                         1.335408       0.003370
                                                         4.395399       0.000000
                                                        12.309450       0.000000
                                                        62.914956       0.000000
                          1      15    5gy2z2            0.050000       0.000029
                                                         0.148931       0.002626
                                                         0.454433       0.404785
                                                         1.335408       0.004351
                                                         4.395399       0.000000
                                                        12.309450       0.000000
                                                        62.914956       0.000000
                          1      15    5gyz3             0.050000       0.000022
                                                         0.148931       0.002034
                                                         0.454433       0.313545
                                                         1.335408       0.003370
                                                         4.395399       0.000000
                                                        12.309450       0.000000
                                                        62.914956       0.000000
                          1      15    5gz4              0.050000       0.000008
                                                         0.148931       0.000769
                                                         0.454433       0.118509
                                                         1.335408       0.001274
                                                         4.395399       0.000000
                                                        12.309450       0.000000
                                                        62.914956       0.000000

                          2       1    1s            27032.341107       0.827485
                                                      4052.439160       2.350354
                                                       922.349653       2.989583
                                                       261.277359       5.859993
                                                        85.309424       4.920023
                                                        31.080802       6.525964

     RI Auxiliary Basis Set             RI_aug-TZVP-MOLOPT-ae_N_RI_084_s_p_d_f_g

       Number of orbital shell sets:                                          20
       Number of orbital shells:                                              20
       Number of primitive Cartesian functions:                               20
       Number of Cartesian basis functions:                                  118
       Number of spherical basis functions:                                   84
       Norm type:                                                              2

       Normalised Cartesian orbitals:

                        Set   Shell   Orbital            Exponent    Coefficient

                          1       1    1s                0.394977       0.355090

                          2       1    8px               0.592593       0.741114
                          2       1    8py               0.592593       0.741114
                          2       1    8pz               0.592593       0.741114

                          3       1   12dx2              0.622193       0.717428
                          3       1   12dxy              0.622193       1.242621
                          3       1   12dxz              0.622193       1.242621
                          3       1   12dy2              0.622193       0.717428
                          3       1   12dyz              0.622193       1.242621
                          3       1   12dz2              0.622193       0.717428

                          4       1   15fx3              0.748820       0.767899
                          4       1   15fx2y             0.748820       1.717074
                          4       1   15fx2z             0.748820       1.717074
                          4       1   15fxy2             0.748820       1.717074
                          4       1   15fxyz             0.748820       2.974059
                          4       1   15fxz2             0.748820       1.717074
                          4       1   15fy3              0.748820       0.767899
                          4       1   15fy2z             0.748820       1.717074
                          4       1   15fyz2             0.748820       1.717074
                          4       1   15fz3              0.748820       0.767899

                          5       1    2s                0.758177       0.579080

                          6       1   20hx5              0.762638       0.307524
                          6       1   20hx4y             0.762638       0.922572
                          6       1   20hx4z             0.762638       0.922572
                          6       1   20hx3y2            0.762638       1.409252
                          6       1   20hx3yz            0.762638       2.440896
                          6       1   20hx3z2            0.762638       1.409252
                          6       1   20hx2y3            0.762638       1.409252
                          6       1   20hx2y2z           0.762638       3.151183
                          6       1   20hx2yz2           0.762638       3.151183
                          6       1   20hx2z3            0.762638       1.409252
                          6       1   20hxy4             0.762638       0.922572
                          6       1   20hxy3z            0.762638       2.440896
                          6       1   20hxy2z2           0.762638       3.151183
                          6       1   20hxyz3            0.762638       2.440896
                          6       1   20hxz4             0.762638       0.922572
                          6       1   20hy5              0.762638       0.307524
                          6       1   20hy4z             0.762638       0.922572
                          6       1   20hy3z2            0.762638       1.409252
                          6       1   20hy2z3            0.762638       1.409252
                          6       1   20hyz4             0.762638       0.922572
                          6       1   20hz5              0.762638       0.307524

                          7       1   18gx4              0.766762       0.536108
                          7       1   18gx3y             0.766762       1.418409
                          7       1   18gx3z             0.766762       1.418409
                          7       1   18gx2y2            0.766762       1.831158
                          7       1   18gx2yz            0.766762       3.171659
                          7       1   18gx2z2            0.766762       1.831158
                          7       1   18gxy3             0.766762       1.418409
                          7       1   18gxy2z            0.766762       3.171659
                          7       1   18gxyz2            0.766762       3.171659
                          7       1   18gxz3             0.766762       1.418409
                          7       1   18gy4              0.766762       0.536108
                          7       1   18gy3z             0.766762       1.418409
                          7       1   18gy2z2            0.766762       1.831158
                          7       1   18gyz3             0.766762       1.418409
                          7       1   18gz4              0.766762       0.536108

                          8       1    9px               1.302856       1.984087
                          8       1    9py               1.302856       1.984087
                          8       1    9pz               1.302856       1.984087

                          9       1   13dx2              1.576763       3.651747
                          9       1   13dxy              1.576763       6.325011
                          9       1   13dxz              1.576763       6.325011
                          9       1   13dy2              1.576763       3.651747
                          9       1   13dyz              1.576763       6.325011
                          9       1   13dz2              1.576763       3.651747

                         10       1   16fx3              1.850605       5.880449
                         10       1   16fx2y             1.850605      13.149085
                         10       1   16fx2z             1.850605      13.149085
                         10       1   16fxy2             1.850605      13.149085
                         10       1   16fxyz             1.850605      22.774883
                         10       1   16fxz2             1.850605      13.149085
                         10       1   16fy3              1.850605       5.880449
                         10       1   16fy2z             1.850605      13.149085
                         10       1   16fyz2             1.850605      13.149085
                         10       1   16fz3              1.850605       5.880449

                         11       1    3s                2.019986       1.207595

                         12       1   19gx4              2.247734      10.321295
                         12       1   19gx3y             2.247734      27.307580
                         12       1   19gx3z             2.247734      27.307580
                         12       1   19gx2y2            2.247734      35.253935
                         12       1   19gx2yz            2.247734      61.061606
                         12       1   19gx2z2            2.247734      35.253935
                         12       1   19gxy3             2.247734      27.307580
                         12       1   19gxy2z            2.247734      61.061606
                         12       1   19gxyz2            2.247734      61.061606
                         12       1   19gxz3             2.247734      27.307580
                         12       1   19gy4              2.247734      10.321295
                         12       1   19gy3z             2.247734      27.307580
                         12       1   19gy2z2            2.247734      35.253935
                         12       1   19gyz3             2.247734      27.307580
                         12       1   19gz4              2.247734      10.321295

                         13       1   10px               4.315805       8.866810
                         13       1   10py               4.315805       8.866810
                         13       1   10pz               4.315805       8.866810

                         14       1   17fx3              5.299035      62.718738
                         14       1   17fx2y             5.299035     140.243362
                         14       1   17fx2z             5.299035     140.243362
                         14       1   17fxy2             5.299035     140.243362
                         14       1   17fxyz             5.299035     242.908628
                         14       1   17fxz2             5.299035     140.243362
                         14       1   17fy3              5.299035      62.718738
                         14       1   17fy2z             5.299035     140.243362
                         14       1   17fyz2             5.299035     140.243362
                         14       1   17fz3              5.299035      62.718738

                         15       1   14dx2              5.831670      36.020277
                         15       1   14dxy              5.831670      62.388950
                         15       1   14dxz              5.831670      62.388950
                         15       1   14dy2              5.831670      36.020277
                         15       1   14dyz              5.831670      62.388950
                         15       1   14dz2              5.831670      36.020277

                         16       1    4s                6.133734       2.777818

                         17       1   11px              16.187533      46.282405
                         17       1   11py              16.187533      46.282405
                         17       1   11pz              16.187533      46.282405

                         18       1    5s               18.509850       6.360076

                         19       1    6s               54.993071      14.392660

                         20       1    7s              162.486381      32.435666

       Atomic covalent radius [Angstrom]:                                  0.730

       Atomic van der Waals radius [Angstrom]:                             1.520

     The atoms of this atomic kind are PAW atoms (GAPW):
       Hard Gaussian function radius:                                      1.512
       Rho0 radius:                                                        1.512
       Maximum GTO radius used for PAW projector construction:            24.566

     GAPW Soft Basis Set                                 aug-TZVP-MOLOPT-ae_soft

       Number of orbital shell sets:                                           2
       Number of orbital shells:                                              16
       Number of primitive Cartesian functions:                                5
       Number of Cartesian basis functions:                                   71
       Number of spherical basis functions:                                   56
       Norm type:                                                              2

       Normalised Cartesian orbitals:

                        Set   Shell   Orbital            Exponent    Coefficient

                          1       1    1s                0.050000       0.000000
                                                         0.148931       0.008771
                                                         0.454433       0.026241
                                                         1.335408       0.005818
                                                         4.395399       0.000000

                          1       2    2s                0.050000       0.000000
                                                         0.148931       0.036066
                                                         0.454433       0.073646
                                                         1.335408       0.667362
                                                         4.395399       0.000000

                          1       3    3s                0.050000       0.000000
                                                         0.148931       0.072341
                                                         0.454433       0.339134
                                                         1.335408      -0.296204
                                                         4.395399       0.000000

                          1       4    4s                0.050000       0.000000
                                                         0.148931       0.257390
                                                         0.454433      -0.327789
                                                         1.335408      -0.186757
                                                         4.395399       0.000000

                          1       5    5s                0.050000       0.095896
                                                         0.148931      -0.062439
                                                         0.454433       0.011784
                                                         1.335408      -0.100924
                                                         4.395399       0.000000

                          1       6    2px               0.050000       0.000000
                                                         0.148931       0.002211
                                                         0.454433      -0.015509
                                                         1.335408       1.487193
                                                         4.395399       0.000000
                          1       6    2py               0.050000       0.000000
                                                         0.148931       0.002211
                                                         0.454433      -0.015509
                                                         1.335408       1.487193
                                                         4.395399       0.000000
                          1       6    2pz               0.050000       0.000000
                                                         0.148931       0.002211
                                                         0.454433      -0.015509
                                                         1.335408       1.487193
                                                         4.395399       0.000000

                          1       7    3px               0.050000       0.000000
                                                         0.148931       0.008518
                                                         0.454433       0.481961
                                                         1.335408       0.085170
                                                         4.395399       0.000000
                          1       7    3py               0.050000       0.000000
                                                         0.148931       0.008518
                                                         0.454433       0.481961
                                                         1.335408       0.085170
                                                         4.395399       0.000000
                          1       7    3pz               0.050000       0.000000
                                                         0.148931       0.008518
                                                         0.454433       0.481961
                                                         1.335408       0.085170
                                                         4.395399       0.000000

                          1       8    4px               0.050000       0.000000
                                                         0.148931       0.138320
                                                         0.454433      -0.034294
                                                         1.335408      -0.042535
                                                         4.395399       0.000000
                          1       8    4py               0.050000       0.000000
                                                         0.148931       0.138320
                                                         0.454433      -0.034294
                                                         1.335408      -0.042535
                                                         4.395399       0.000000
                          1       8    4pz               0.050000       0.000000
                                                         0.148931       0.138320
                                                         0.454433      -0.034294
                                                         1.335408      -0.042535
                                                         4.395399       0.000000

                          1       9    5px               0.050000      -0.000964
                                                         0.148931       0.027417
                                                         0.454433       0.328542
                                                         1.335408       0.651611
                                                         4.395399       0.000000
                          1       9    5py               0.050000      -0.000964
                                                         0.148931       0.027417
                                                         0.454433       0.328542
                                                         1.335408       0.651611
                                                         4.395399       0.000000
                          1       9    5pz               0.050000      -0.000964
                                                         0.148931       0.027417
                                                         0.454433       0.328542
                                                         1.335408       0.651611
                                                         4.395399       0.000000

                          1      10    3dx2              0.050000       0.000000
                                                         0.148931       0.011799
                                                         0.454433       0.037044
                                                         1.335408       1.177796
                                                         4.395399       0.000000
                          1      10    3dxy              0.050000       0.000000
                                                         0.148931       0.020436
                                                         0.454433       0.064161
                                                         1.335408       2.040003
                                                         4.395399       0.000000
                          1      10    3dxz              0.050000       0.000000
                                                         0.148931       0.020436
                                                         0.454433       0.064161
                                                         1.335408       2.040003
                                                         4.395399       0.000000
                          1      10    3dy2              0.050000       0.000000
                                                         0.148931       0.011799
                                                         0.454433       0.037044
                                                         1.335408       1.177796
                                                         4.395399       0.000000
                          1      10    3dyz              0.050000       0.000000
                                                         0.148931       0.020436
                                                         0.454433       0.064161
                                                         1.335408       2.040003
                                                         4.395399       0.000000
                          1      10    3dz2              0.050000       0.000000
                                                         0.148931       0.011799
                                                         0.454433       0.037044
                                                         1.335408       1.177796
                                                         4.395399       0.000000

                          1      11    4dx2              0.050000       0.000000
                                                         0.148931      -0.006399
                                                         0.454433       0.341143
                                                         1.335408       1.062793
                                                         4.395399       0.000000
                          1      11    4dxy              0.050000       0.000000
                                                         0.148931      -0.011084
                                                         0.454433       0.590877
                                                         1.335408       1.840811
                                                         4.395399       0.000000
                          1      11    4dxz              0.050000       0.000000
                                                         0.148931      -0.011084
                                                         0.454433       0.590877
                                                         1.335408       1.840811
                                                         4.395399       0.000000
                          1      11    4dy2              0.050000       0.000000
                                                         0.148931      -0.006399
                                                         0.454433       0.341143
                                                         1.335408       1.062793
                                                         4.395399       0.000000
                          1      11    4dyz              0.050000       0.000000
                                                         0.148931      -0.011084
                                                         0.454433       0.590877
                                                         1.335408       1.840811
                                                         4.395399       0.000000
                          1      11    4dz2              0.050000       0.000000
                                                         0.148931      -0.006399
                                                         0.454433       0.341143
                                                         1.335408       1.062793
                                                         4.395399       0.000000

                          1      12    5dx2              0.050000      -0.000167
                                                         0.148931       0.000910
                                                         0.454433       0.391605
                                                         1.335408       0.205296
                                                         4.395399       0.000000
                          1      12    5dxy              0.050000      -0.000290
                                                         0.148931       0.001577
[...]
 * [ABORT]                                                                     *
 *  \___/  Matrix (A-B) is not positive definite. Hermitian diagonalization of *
 *    |                      full ABBA matrix is ill-defined.                  *
 *  O/|                                                                        *
 * /| |                                                                        *
 * / \                                                     bse_full_diag.F:392 *
 *******************************************************************************


 ===== Routine Calling Stack ===== 

            8 create_hermitian_form_of_ABBA
            7 start_bse_calculation
            6 rpa_num_int
            5 rpa_ri_compute_en
            4 mp2_gpw_main
            3 mp2_main
            2 qs_energies
            1 CP2K

 *******************************************************************************
 *   ___                                                                       *
 *  /   \                                                                      *
 * [ABORT]                                                                     *
 *  \___/  Matrix (A-B) is not positive definite. Hermitian diagonalization of *
 *    |                      full ABBA matrix is ill-defined.                  *
 *  O/|                                                                        
 *******************************************************************************
 *   ___                                                                       *
 *  /   \                                                                      *
 * [ABORT]                                                                     *
 *  \___/  Matrix (A-B) is not positive definite. Hermitian diagonalization of *
 *    |                      full ABBA matrix is ill-defined.                  *
 *  O/|                                                                        *
 * /| |                                                                        *
 * / \                                                     bse_full_diag.F:392 *
 *******************************************************************************


 ===== Routine Calling Stack ===== 

            8 create_hermitian_form_of_ABBA
            7 start_bse_calculation
            6 rpa_num_int
            5 rpa_ri_compute_en
            4 mp2_gpw_main
            3 mp2_main
            2 qs_energies
            1 CP2K

 *******************************************************************************
 *   ___                                                                       *
 *  /   \                                                                      *
 * [ABORT]                                                                     *
 *  \___/  Matrix (A-B) is not positive definite. Hermitian diagonalization of *
 *    |                      full ABBA matrix is ill-defined.                  *
 *  O/|                                                                        *
 * /| |                                                                        *
 * / \                                                     bse_full_diag.F:392            6 rpa_num_int
            5 rpa_ri_compute_en
            4 mp2_gpw_main
            3 mp2_main
            2 qs_energies
            1 CP2K

 *******************************************************************************
 *   ___                                                                       *
 *  /   \                                                                      *
 * [ABORT]                                                                     *
 *  \___/  Matrix (A-B) is not positive definite. Hermitian diagonalization of *
 *    |                      full ABBA matrix is ill-defined.                  *
 *  O/|                                                                        *
 * /| |                                                                        *
 * / \                                                     bse_full_diag.F:392 *
 *******************************************************************************


 ===== Routine Calling Stack ===== 

            8 create_hermitian_form_of_ABBA
            7 start_bse_calculation
            6 rpa_num_int
            5 rpa_ri_compute_en
            4 mp2_gpw_main
            3 mp2_main
            2 qs_energies
            1 CP2K

 *******************************************************************************
 *   ___                                                                       *
 *  /   \                                                                      *
 * [ABORT]                                                                     *
 *  \___/  Matrix (A-B) is not positive definite. Hermitian diagonalization of *
 *    |                      full ABBA matrix is ill-defined.                  *
 *  O/|                                                                        *
 * /| |                                                                        *
 * / \                                                     bse_full_diag.F:392 *
 *******************************************************************************


 ===== Routine Calling Stack ===== 

            8 create_hermitian_form_of_ABBA
            7 start_bse_calculation
            6 rpa_num_int
            5 rpa_ri_compute_en
            4 mp2_gpw_main
            3 mp2_main
            2 qs_energies
            1 CP2K

 *******************************************************************************
 *   ___                                                                       *
 *  /   \                                                                      *
 * [ABORT]                                                                     
 *******************************************************************************
 *   ___                                                                       *
 *  /   \                                                                      *
 * [ABORT]                                                                     *
 *  \___/  Matrix (A-B) is not positive definite. Hermitian diagonalization of *
 *    |                      full ABBA matrix is ill-defined.                  *
 *  O/|                                                                        *
 * /| |                                                                        *
 * / \                                                     bse_full_diag.F:392 *
 *******************************************************************************


 ===== Routine Calling Stack ===== 

            8 create_hermitian_form_of_ABBA
            7 start_bse_calculation
            6 rpa_num_int
            5 rpa_ri_compute_en
            4 mp2_gpw_main
            3 mp2_main

 *******************************************************************************
 *   ___                                                                       *
 *  /   \                                                                      *
 * [ABORT]                                                                     *
 *  \___/  Matrix (A-B) is not positive definite. Hermitian diagonalization of *
 *    |                      full ABBA matrix is ill-defined.                  *
 *
 *******************************************************************************
 *   ___                                                                       *
 *  /   \                                                                      *
 * [ABORT]                                                                     *
 *  \___/  Matrix (A-B) is not positive definite. Hermitian diagonalization of *
 *    |                      full ABBA matrix is ill-defined.                  *
 *  O/|                                                                        *
 * /| |                                                                        *
 * / \                                                     bse_full_diag.F:392            2 qs_energies
            1 CP2K
 / \                                                     bse_full_diag.F:392 *
 *******************************************************************************


 ===== Routine Calling Stack ===== 

            8 create_hermitian_form_of_ABBA
            7 start_bse_calculation
            6 rpa_num_int
            5 rpa_ri_compute_en
            4 mp2_gpw_main
            3 mp2_main
            2 qs_energies
            1 CP2K
*
 * /| |                                                                        *
 * / \                                                     bse_full_diag.F:392 *
 *******************************************************************************


 ===== Routine Calling Stack ===== 

            8 create_hermitian_form_of_ABBA
            7 start_bse_calculation
            6 rpa_num_int
            5 rpa_ri_compute_en
            4 mp2_gpw_main
            3 mp2_main
            2 qs_energies
            1 CP2K

 *******************************************************************************
 *   ___                                                                       *
 *  /   \                                                                      *
 * [ABORT]                                                                     *
 *
 *******************************************************************************
 *   ___                                                                       *
 *  /   \                                                                      *
 * [ABORT]                                                                     *
 *  \___/  Matrix (A-B) is not positive definite. Hermitian diagonalization of *
 *    |                      full ABBA matrix is ill-defined.
 *******************************************************************************
 *   ___                                                                       *
 *  /   \                                                                      *
 * [ABORT]                                                                     *
 *  \___/  
 *******************************************************************************
 *   ___                                                                       *
 *  /   \                                                                      *
 * [ABORT]                                                                     *
            4 mp2_gpw_main
            3 mp2_main
            2 qs_energies
            1 CP2K

 *******************************************************************************
 *   ___                                                                       *
 *  /   \                                                                      *
 * [ABORT]                                                                     *
 *  \___/  Matrix (A-B) is not positive definite. Hermitian diagonalization of *
 *    |                      full ABBA matrix is ill-defined.                  *
 *  O/|                                                                        *
 * /| |                                                                        *
 * / \                                                     bse_full_diag.F:392 *
 *******************************************************************************

 *******************************************************************************
 *   ___                                                                       *
 *  /   \                                                                      *
 * [ABORT]                                                                     *
 *  \___/   * / \                                                     bse_full_diag.F:392 *
 *******************************************************************************


 ===== Routine Calling Stack ===== 

            8 create_hermitian_form_of_ABBA
            7 start_bse_calculation
            6 rpa_num_int
            5 rpa_ri_compute_en
            4 mp2_gpw_main
            3 mp2_main
            2 qs_energies
            1 CP2K
 *
 *******************************************************************************


 ===== Routine Calling Stack ===== 

            8 create_hermitian_form_of_ABBA
            7 start_bse_calculation
            6 rpa_num_int
            5 rpa_ri_compute_en
            4 mp2_gpw_main
            3 mp2_main
            2 qs_energies
            1 CP2K
  \___/  Matrix (A-B) is not positive definite. Hermitian diagonalization of *
 *    |                      full ABBA matrix is ill-defined.                  *
 *  O/|                                       *
 *******************************************************************************


 ===== Routine Calling Stack ===== 

            8 create_hermitian_form_of_ABBA
            7 start_bse_calculation
            6 rpa_num_int
            5 rpa_ri_compute_en
            4 mp2_gpw_main
            3 mp2_main
            2 qs_energies
            1 CP2K

 *******************************************************************************
 *   ___                                                                       *
 *  /   \                                                                      *
 * [ABORT]                                                                     *
 *  \___/  Matrix (A-B) is not positive definite. Hermitian diagonalization of *
 *    |                      full ABBA matrix is ill-defined.                  *
 *  O/|                                                                        *
 * /| |                                                                        *
 * / \                                                     bse_full_diag.F:392 *
 *******************************************************************************


 ===== Routine Calling Stack ===== 

            8 create_hermitian_form_of_ABBA
            7 start_bse_calculation
            6 rpa_num_int
 *  \___/  Matrix (A-B) is not positive definite. Hermitian diagonalization of *
 *    |                      full ABBA matrix is ill-defined.                  *
 *  O/|                                                                          O/|                                                                        *
 * /| |                                                                        *
 * / \                                                     bse_full_diag.F:392 *
 *******************************************************************************


 ===== Routine Calling Stack ===== 

            8 create_hermitian_form_of_ABBA
            7 start_bse_calculation
            6 rpa_num_int
            5 rpa_ri_compute_en
            4 mp2_gpw_main
            3 mp2_main
 *
 *******************************************************************************


 ===== Routine Calling Stack ===== 

            8 create_hermitian_form_of_ABBA
            7 start_bse_calculation
            6 rpa_num_int
            5 rpa_ri_compute_en
            4 mp2_gpw_main
            3 mp2_main
            2 qs_energies
            1 CP2K
Matrix (A-B) is not positive definite. Hermitian diagonalization of *
 *    |                      full ABBA matrix is ill-defined.                  *
 *  O/|                                                                        *
 * /| |                      *
 *  O/|                                                                        *
 * /| |                                                                        *
 * / \                                                     bse_full_diag.F:392 *
 *******************************************************************************


 ===== Routine Calling Stack ===== 

            8 create_hermitian_form_of_ABBA
            7 start_bse_calculation
*
 *  \___/  Matrix (A-B) is not positive definite. Hermitian diagonalization of *
 *    |                      full ABBA matrix is ill-defined.                  *
 *  O/|                                                                        *
 * /| |                                                                        *
 * / \                                                     bse_full_diag.F:392 *
 *******************************************************************************


 ===== Routine Calling Stack ===== 

            8 create_hermitian_form_of_ABBA
            7 start_bse_calculation
            6 rpa_num_int
            5 rpa_ri_compute_en
            4 mp2_gpw_main
            3 mp2_main
            2 qs_energies
*
 * /| |                                                                        *
 * / \                                                     bse_full_diag.F:392 *
 *******************************************************************************
            2 qs_energies
            1 CP2K
 *
 *******************************************************************************


 ===== Routine Calling Stack ===== 

            8 create_hermitian_form_of_ABBA
            7 start_bse_calculation
            6 rpa_num_int
            5 rpa_ri_compute_en
            4 mp2_gpw_main
            3 mp2_main
            2 qs_energies
            1 CP2K
                                  *
 * /| |                                                                        *
 * / \                                                     bse_full_diag.F:392 *
 *******************************************************************************


 ===== Routine Calling Stack ===== 

            6 rpa_num_int
            5 rpa_ri_compute_en
            4 mp2_gpw_main
            3 mp2_main
            2 qs_energies
            1 CP2K
Matrix (A-B) is not positive definite. Hermitian diagonalization of *
 *    |                      full ABBA matrix is ill-defined.                  *
 *  O/|                                                                        *
 * /| |                                                                        *
 * / \                                                     bse_full_diag.F:392 *
 *******************************************************************************


 ===== Routine Calling Stack ===== 

            8 create_hermitian_form_of_ABBA
            7 start_bse_calculation
            6 rpa_num_int
            5 rpa_ri_compute_en
            4 mp2_gpw_main
            3 mp2_main
            2 qs_energies
            1 CP2K
                                                                    *
 * / \                                                     bse_full_diag.F:392 *
 *******************************************************************************


 ===== Routine Calling Stack ===== 

            8 create_hermitian_form_of_ABBA
            7 start_bse_calculation


 ===== Routine Calling Stack ===== 

            8 create_hermitian_form_of_ABBA
            7 start_bse_calculation
            6 rpa_num_int
            5 rpa_ri_compute_en
            4 mp2_gpw_main
            3 mp2_main
            2 qs_energies
            1 CP2K
            8 create_hermitian_form_of_ABBA
            7 start_bse_calculation
            6 rpa_num_int
            5 rpa_ri_compute_en
            4 mp2_gpw_main
            3 mp2_main
            2 qs_energies
            1 CP2K
            5 rpa_ri_compute_en
            4 mp2_gpw_main
            3 mp2_main
            2 qs_energies
            1 CP2K


 ===== Routine Calling Stack ===== 

            8 create_hermitian_form_of_ABBA
            7 start_bse_calculation
            6 rpa_num_int
            5 rpa_ri_compute_en
            4 mp2_gpw_main
            3 mp2_main
            2 qs_energies
            1 CP2K
            1 CP2K
            6 rpa_num_int
            5 rpa_ri_compute_en
            4 mp2_gpw_main
            3 mp2_main
            2 qs_energies
            1 CP2K
