 DBCSR| CPU Multiplication driver                                           BLAS (U)
 DBCSR| Multrec recursion limit                                              512 (U)
 DBCSR| Multiplication stack size                                           1000 (D)
 DBCSR| Maximum elements for images                                    UNLIMITED (U)
 DBCSR| Multiplicative factor virtual images                                   1 (U)
 DBCSR| Use multiplication densification                                       T (D)
 DBCSR| Multiplication size stacks                                             3 (U)
 DBCSR| Use memory pool for CPU allocation                                     F (U)
 DBCSR| Number of 3D layers                                               SINGLE (U)
 DBCSR| Use MPI memory allocation                                              F (U)
 DBCSR| Use RMA algorithm                                                      F (U)
 DBCSR| Use Communication thread                                               T (U)
 DBCSR| Communication thread load                                             75 (D)
 DBCSR| MPI: My process id                                                     0
 DBCSR| MPI: Number of processes                                              48
 DBCSR| OMP: Current number of threads                                         4
 DBCSR| OMP: Max number of threads                                             4
 DBCSR| Split modifier for TAS multiplication algorithm                  1.0E+00 (U)


  **** **** ******  **  PROGRAM STARTED AT               2025-03-26 06:04:40.691
 ***** ** ***  *** **   PROGRAM STARTED ON                          i05r10c05s08
 **    ****   ******    PROGRAM STARTED BY                               di38fab
 ***** **    ** ** **   PROGRAM PROCESS ID                               3018324
  **** **  *******  **  PROGRAM STARTED IN /hppfs/scratch/04/di38fab/05_MOL/W4-1
                                           1+ALK/bn/SZV/GW+BSE/1e-4

 CP2K| version string:                 CP2K version 2025.1 (Development Version)
 CP2K| source code revision number:                                  git:d2e611a
 CP2K| cp2kflags: omp libint fftw3 libxc parallel scalapack max_contr=4         
 CP2K| is freely available from                            https://www.cp2k.org/
 CP2K| Program compiled at                       Thu 06 Mar 2025 05:09:20 PM CET
 CP2K| Program compiled on                                               login02
 CP2K| Program compiled for                                        Supermuc-foss
 CP2K| Data directory path                  /hppfs/work/pn36zo/di38fab/cp2k/data
 CP2K| Input file name                                                    GW.inp

 GLOBAL| Force Environment number                                              1
 GLOBAL| Basis set file name            /hppfs/scratch/04/di38fab/04_TMD/BASIS_A
 GLOBAL| Potential file name            /hppfs/work/pn36zo/di38fab/cp2k/data/ALL
 GLOBAL| MM Potential file name                                     MM_POTENTIAL
 GLOBAL| Coordinate file name                                      __STD_INPUT__
 GLOBAL| Method name                                                        CP2K
 GLOBAL| Project name                                                       MoS2
 GLOBAL| Run type                                                         ENERGY
 GLOBAL| FFT library                                                       FFTW3
 GLOBAL| Diagonalization library                                       ScaLAPACK
 GLOBAL| DGEMM library                                                      BLAS
 GLOBAL| Orthonormality check for eigenvectors                          DISABLED
 GLOBAL| Matrix multiplication library                                 ScaLAPACK
 GLOBAL| All-to-all communication in single precision                          F
 GLOBAL| FFTs using library dependent lengths                                  F
 GLOBAL| Grid backend                                                       AUTO
 GLOBAL| Global print level                                               MEDIUM
 GLOBAL| MPI I/O enabled                                                       T
 GLOBAL| Total number of message passing processes                            48
 GLOBAL| Number of threads for this process                                    4
 GLOBAL| This output is from process                                           0
 GLOBAL| OpenMP stack size per thread (OMP_STACKSIZE)                    default
 GLOBAL| CPU model name             Intel(R) Xeon(R) Platinum 8174 CPU @ 3.10GHz

 MEMORY| system memory details [Kb]
 MEMORY|                        rank 0           min           max       average
 MEMORY| MemTotal             98436660      98436648      98436664      98436658
 MEMORY| MemFree              83944572      83600776      84839056      84301948
 MEMORY| Buffers                     0             0             0             0
 MEMORY| Cached                2401040       2392308       2409116       2400739
 MEMORY| Slab                  1242352       1082124       1242740       1164030
 MEMORY| SReclaimable           278292        247924        286240        267299
 MEMORY| MemLikelyFree        86623904      86296132      87496288      86969986


 *** Fundamental physical constants (SI units) ***

 *** Literature: B. J. Mohr and B. N. Taylor,
 ***             CODATA recommended values of the fundamental physical
 ***             constants: 2006, Web Version 5.1
 ***             http://physics.nist.gov/constants

 Speed of light in vacuum [m/s]                             2.99792458000000E+08
 Magnetic constant or permeability of vacuum [N/A**2]       1.25663706143592E-06
 Electric constant or permittivity of vacuum [F/m]          8.85418781762039E-12
 Planck constant (h) [J*s]                                  6.62606896000000E-34
 Planck constant (h-bar) [J*s]                              1.05457162825177E-34
 Elementary charge [C]                                      1.60217648700000E-19
 Electron mass [kg]                                         9.10938215000000E-31
 Electron g factor [ ]                                     -2.00231930436220E+00
 Proton mass [kg]                                           1.67262163700000E-27
 Fine-structure constant                                    7.29735253760000E-03
 Rydberg constant [1/m]                                     1.09737315685270E+07
 Avogadro constant [1/mol]                                  6.02214179000000E+23
 Boltzmann constant [J/K]                                   1.38065040000000E-23
 Atomic mass unit [kg]                                      1.66053878200000E-27
 Bohr radius [m]                                            5.29177208590000E-11

 *** Conversion factors ***

 [u] -> [a.u.]                                              1.82288848426455E+03
 [Angstrom] -> [Bohr] = [a.u.]                              1.88972613288564E+00
 [a.u.] = [Bohr] -> [Angstrom]                              5.29177208590000E-01
 [a.u.] -> [s]                                              2.41888432650478E-17
 [a.u.] -> [fs]                                             2.41888432650478E-02
 [a.u.] -> [J]                                              4.35974393937059E-18
 [a.u.] -> [N]                                              8.23872205491840E-08
 [a.u.] -> [K]                                              3.15774647902944E+05
 [a.u.] -> [kJ/mol]                                         2.62549961709828E+03
 [a.u.] -> [kcal/mol]                                       6.27509468713739E+02
 [a.u.] -> [Pa]                                             2.94210107994716E+13
 [a.u.] -> [bar]                                            2.94210107994716E+08
 [a.u.] -> [atm]                                            2.90362800883016E+08
 [a.u.] -> [eV]                                             2.72113838565563E+01
 [a.u.] -> [Hz]                                             6.57968392072181E+15
 [a.u.] -> [1/cm] (wave numbers)                            2.19474631370540E+05
 [a.u./Bohr**2] -> [1/cm]                                   5.14048714338585E+03
 

 CELL_TOP| Volume [angstrom^3]:                                     27000.000000
 CELL_TOP| Vector a [angstrom    30.000     0.000     0.000   |a| =    30.000000
 CELL_TOP| Vector b [angstrom     0.000    30.000     0.000   |b| =    30.000000
 CELL_TOP| Vector c [angstrom     0.000     0.000    30.000   |c| =    30.000000
 CELL_TOP| Angle (b,c), alpha [degree]:                                90.000000
 CELL_TOP| Angle (a,c), beta  [degree]:                                90.000000
 CELL_TOP| Angle (a,b), gamma [degree]:                                90.000000
 CELL_TOP| Numerically orthorhombic:                                         YES
 CELL_TOP| Periodicity                                                      NONE

 GENERATE|  Preliminary Number of Bonds generated:                             0
 GENERATE|  Achieved consistency in connectivity generation.

 CELL| Volume [angstrom^3]:                                         27000.000000
 CELL| Vector a [angstrom]:      30.000     0.000     0.000   |a| =    30.000000
 CELL| Vector b [angstrom]:       0.000    30.000     0.000   |b| =    30.000000
 CELL| Vector c [angstrom]:       0.000     0.000    30.000   |c| =    30.000000
 CELL| Angle (b,c), alpha [degree]:                                    90.000000
 CELL| Angle (a,c), beta  [degree]:                                    90.000000
 CELL| Angle (a,b), gamma [degree]:                                    90.000000
 CELL| Numerically orthorhombic:                                             YES
 CELL| Periodicity                                                          NONE

 CELL_REF| Volume [angstrom^3]:                                     27000.000000
 CELL_REF| Vector a [angstrom    30.000     0.000     0.000   |a| =    30.000000
 CELL_REF| Vector b [angstrom     0.000    30.000     0.000   |b| =    30.000000
 CELL_REF| Vector c [angstrom     0.000     0.000    30.000   |c| =    30.000000
 CELL_REF| Angle (b,c), alpha [degree]:                                90.000000
 CELL_REF| Angle (a,c), beta  [degree]:                                90.000000
 CELL_REF| Angle (a,b), gamma [degree]:                                90.000000
 CELL_REF| Numerically orthorhombic:                                         YES
 CELL_REF| Periodicity                                                      NONE

 *******************************************************************************
 *******************************************************************************
 **                                                                           **
 **     #####                         ##              ##                      **
 **    ##   ##            ##          ##              ##                      **
 **   ##     ##                       ##            ######                    **
 **   ##     ##  ##   ##  ##   #####  ##  ##   ####   ##    #####    #####    **
 **   ##     ##  ##   ##  ##  ##      ## ##   ##      ##   ##   ##  ##   ##   **
 **   ##  ## ##  ##   ##  ##  ##      ####     ###    ##   ######   ######    **
 **    ##  ###   ##   ##  ##  ##      ## ##      ##   ##   ##       ##        **
 **     #######   #####   ##   #####  ##  ##  ####    ##    #####   ##        **
 **           ##                                                    ##        **
 **                                                                           **
 **                                                ... make the atoms dance   **
 **                                                                           **
 **            Copyright (C) by CP2K developers group (2000-2025)             **
 **                      J. Chem. Phys. 152, 194103 (2020)                    **
 **                                                                           **
 *******************************************************************************

 DFT| Spin restricted Kohn-Sham (RKS) calculation                            RKS
 DFT| Multiplicity                                                             1
 DFT| Number of spin states                                                    1
 DFT| Charge                                                                   0
 DFT| Self-interaction correction (SIC)                                       NO
 DFT| Cutoffs: density                                              1.000000E-10
 DFT|          gradient                                             1.000000E-10
 DFT|          tau                                                  1.000000E-10
 DFT|          cutoff_smoothing_range                               0.000000E+00
 DFT| XC density smoothing                                                  NONE
 DFT| XC derivatives                                                          PW

 FUNCTIONAL| PBE:
 FUNCTIONAL| J.P.Perdew, K.Burke, M.Ernzerhof, Phys. Rev. Letter, vol. 77, n 18,
 FUNCTIONAL|  pp. 3865-3868, (1996)sx=0.750sc=1.000{spin unpolarized}           


 QS| Method:                                                                GAPW
 QS| Density plane wave grid type                        NON-SPHERICAL FULLSPACE
 QS| Number of grid levels:                                                    4
 QS| Density cutoff [a.u.]:                                                250.0
 QS| Multi grid cutoff [a.u.]: 1) grid level                               250.0
 QS|                           2) grid level                                83.3
 QS|                           3) grid level                                27.8
 QS|                           4) grid level                                 9.3
 QS| Grid level progression factor:                                          3.0
 QS| Relative density cutoff [a.u.]:                                        50.0
 QS| Interaction thresholds: eps_pgf_orb:                                1.0E-12
 QS|                         eps_filter_matrix:                          0.0E+00
 QS|                         eps_core_charge:                            1.0E-14
 QS|                         eps_rho_gspace:                             1.0E-12
 QS|                         eps_rho_rspace:                             1.0E-12
 QS|                         eps_gvg_rspace:                             1.0E-06
 QS|                         eps_ppl:                                    1.0E-02
 QS|                         eps_ppnl:                                   1.0E-08
 QS| GAPW|      One center basis from orbital basis primitives
 QS| GAPW|                   eps_fit:                                    1.0E-04
 QS| GAPW|                   eps_iso:                                    1.0E-12
 QS| GAPW|                   eps_svd:                                    1.0E-08
 QS| GAPW|                   eps_cpc:                                    1.0E-12
 QS| GAPW|   atom-r-grid: quadrature:                                     GC_LOG
 QS| GAPW|      atom-s-grid:  max l :                                          4
 QS| GAPW|      max_l_rho0 :                                                   2


 ATOMIC KIND INFORMATION

  1. Atomic kind: B                                     Number of atoms:       1

     Orbital Basis Set                                         aug-SZV-MOLOPT-ae

       Number of orbital shell sets:                                           2
       Number of orbital shells:                                               6
       Number of primitive Cartesian functions:                               13
       Number of Cartesian basis functions:                                   15
       Number of spherical basis functions:                                   14
       Norm type:                                                              2

       Normalised Cartesian orbitals:

                        Set   Shell   Orbital            Exponent    Coefficient

                          1       1    1s                0.109280       0.032606
                                                         0.155613       0.000000
                                                         0.238409       0.144712
                                                         0.548949       0.113742
                                                         1.426820      -0.031435
                                                         4.590809      -0.105038
                                                        23.194561      -0.099829

                          1       2    2s                0.109280      -0.049098
                                                         0.155613      -0.119813
                                                         0.238409      -0.025283
                                                         0.548949       0.056653
                                                         1.426820       0.132404
                                                         4.590809       0.000000
                                                        23.194561       0.000000

                          1       3    2px               0.109280       0.009109
                                                         0.155613       0.000000
                                                         0.238409       0.101125
                                                         0.548949       0.281559
                                                         1.426820       0.386539
                                                         4.590809       0.360915
                                                        23.194561       0.272788
                          1       3    2py               0.109280       0.009109
                                                         0.155613       0.000000
                                                         0.238409       0.101125
                                                         0.548949       0.281559
                                                         1.426820       0.386539
                                                         4.590809       0.360915
                                                        23.194561       0.272788
                          1       3    2pz               0.109280       0.009109
                                                         0.155613       0.000000
                                                         0.238409       0.101125
                                                         0.548949       0.281559
                                                         1.426820       0.386539
                                                         4.590809       0.360915
                                                        23.194561       0.272788

                          1       4    3px               0.109280       0.062233
                                                         0.155613       0.035668
                                                         0.238409       0.015304
                                                         0.548949      -0.003054
                                                         1.426820       0.021875
                                                         4.590809       0.000000
                                                        23.194561       0.000000
                          1       4    3py               0.109280       0.062233
                                                         0.155613       0.035668
                                                         0.238409       0.015304
                                                         0.548949      -0.003054
                                                         1.426820       0.021875
                                                         4.590809       0.000000
                                                        23.194561       0.000000
                          1       4    3pz               0.109280       0.062233
                                                         0.155613       0.035668
                                                         0.238409       0.015304
                                                         0.548949      -0.003054
                                                         1.426820       0.021875
                                                         4.590809       0.000000
                                                        23.194561       0.000000

                          1       5    3dx2              0.109280       0.000986
                                                         0.155613       0.002022
                                                         0.238409       0.109458
                                                         0.548949       0.095099
                                                         1.426820       0.028232
                                                         4.590809       0.000000
                                                        23.194561       0.000000
                          1       5    3dxy              0.109280       0.001708
                                                         0.155613       0.003503
                                                         0.238409       0.189586
                                                         0.548949       0.164717
                                                         1.426820       0.048900
                                                         4.590809       0.000000
                                                        23.194561       0.000000
                          1       5    3dxz              0.109280       0.001708
                                                         0.155613       0.003503
                                                         0.238409       0.189586
                                                         0.548949       0.164717
                                                         1.426820       0.048900
                                                         4.590809       0.000000
                                                        23.194561       0.000000
                          1       5    3dy2              0.109280       0.000986
                                                         0.155613       0.002022
                                                         0.238409       0.109458
                                                         0.548949       0.095099
                                                         1.426820       0.028232
                                                         4.590809       0.000000
                                                        23.194561       0.000000
                          1       5    3dyz              0.109280       0.001708
                                                         0.155613       0.003503
                                                         0.238409       0.189586
                                                         0.548949       0.164717
                                                         1.426820       0.048900
                                                         4.590809       0.000000
                                                        23.194561       0.000000
                          1       5    3dz2              0.109280       0.000986
                                                         0.155613       0.002022
                                                         0.238409       0.109458
                                                         0.548949       0.095099
                                                         1.426820       0.028232
                                                         4.590809       0.000000
                                                        23.194561       0.000000

                          2       1    1s              506.011837       0.696781
                                                        92.776716       1.051665
                                                        25.955582       1.381280
                                                         8.916443       1.362748
                                                         3.462516       0.753460
                                                         1.426055       0.121219

     RI Auxiliary Basis Set             RI_aug-SZV-MOLOPT-ae_N_RI_025_s_p_d_f_g_

       Number of orbital shell sets:                                           9
       Number of orbital shells:                                               9
       Number of primitive Cartesian functions:                                9
       Number of Cartesian basis functions:                                   29
       Number of spherical basis functions:                                   25
       Norm type:                                                              2

       Normalised Cartesian orbitals:

                        Set   Shell   Orbital            Exponent    Coefficient

                          1       1    1s                0.250341       0.252237

                          2       1    5px               0.273284       0.281648
                          2       1    5py               0.273284       0.281648
                          2       1    5pz               0.273284       0.281648

                          3       1    8dx2              0.455299       0.415363
                          3       1    8dxy              0.455299       0.719430
                          3       1    8dxz              0.455299       0.719430
                          3       1    8dy2              0.455299       0.415363
                          3       1    8dyz              0.455299       0.719430
                          3       1    8dz2              0.455299       0.415363

                          4       1    9fx3              0.675974       0.609953
                          4       1    9fx2y             0.675974       1.363897
                          4       1    9fx2z             0.675974       1.363897
                          4       1    9fxy2             0.675974       1.363897
                          4       1    9fxyz             0.675974       2.362339
                          4       1    9fxz2             0.675974       1.363897
                          4       1    9fy3              0.675974       0.609953
                          4       1    9fy2z             0.675974       1.363897
                          4       1    9fyz2             0.675974       1.363897
                          4       1    9fz3              0.675974       0.609953

                          5       1    6px               0.737183       0.973664
                          5       1    6py               0.737183       0.973664
                          5       1    6pz               0.737183       0.973664

                          6       1    2s                0.787813       0.595974

                          7       1    3s                5.974522       2.723563

                          8       1    7px               7.247300      16.949636
                          8       1    7py               7.247300      16.949636
                          8       1    7pz               7.247300      16.949636

                          9       1    4s               47.432595      12.881539

       Atomic covalent radius [Angstrom]:                                  0.820

       Atomic van der Waals radius [Angstrom]:                             1.920

     The atoms of this atomic kind are PAW atoms (GAPW):
       Hard Gaussian function radius:                                      1.512
       Rho0 radius:                                                        1.512
       Maximum GTO radius used for PAW projector construction:            24.566

     GAPW Soft Basis Set                                  aug-SZV-MOLOPT-ae_soft

       Number of orbital shell sets:                                           2
       Number of orbital shells:                                               6
       Number of primitive Cartesian functions:                                7
       Number of Cartesian basis functions:                                   15
       Number of spherical basis functions:                                   14
       Norm type:                                                              2

       Normalised Cartesian orbitals:

                        Set   Shell   Orbital            Exponent    Coefficient

                          1       1    1s                0.109280       0.032606
                                                         0.155613       0.000000
                                                         0.238409       0.144712
                                                         0.548949       0.113742
                                                         1.426820      -0.031435

                          1       2    2s                0.109280      -0.049098
                                                         0.155613      -0.119813
                                                         0.238409      -0.025283
                                                         0.548949       0.056653
                                                         1.426820       0.132404

                          1       3    2px               0.109280       0.009109
                                                         0.155613       0.000000
                                                         0.238409       0.101125
                                                         0.548949       0.281559
                                                         1.426820       0.386539
                          1       3    2py               0.109280       0.009109
                                                         0.155613       0.000000
                                                         0.238409       0.101125
                                                         0.548949       0.281559
                                                         1.426820       0.386539
                          1       3    2pz               0.109280       0.009109
                                                         0.155613       0.000000
                                                         0.238409       0.101125
                                                         0.548949       0.281559
                                                         1.426820       0.386539

                          1       4    3px               0.109280       0.062233
                                                         0.155613       0.035668
                                                         0.238409       0.015304
                                                         0.548949      -0.003054
                                                         1.426820       0.021875
                          1       4    3py               0.109280       0.062233
                                                         0.155613       0.035668
                                                         0.238409       0.015304
                                                         0.548949      -0.003054
                                                         1.426820       0.021875
                          1       4    3pz               0.109280       0.062233
                                                         0.155613       0.035668
                                                         0.238409       0.015304
                                                         0.548949      -0.003054
                                                         1.426820       0.021875

                          1       5    3dx2              0.109280       0.000986
                                                         0.155613       0.002022
                                                         0.238409       0.109458
                                                         0.548949       0.095099
                                                         1.426820       0.028232
                          1       5    3dxy              0.109280       0.001708
                                                         0.155613       0.003503
                                                         0.238409       0.189586
                                                         0.548949       0.164717
                                                         1.426820       0.048900
                          1       5    3dxz              0.109280       0.001708
                                                         0.155613       0.003503
                                                         0.238409       0.189586
                                                         0.548949       0.164717
                                                         1.426820       0.048900
                          1       5    3dy2              0.109280       0.000986
                                                         0.155613       0.002022
                                                         0.238409       0.109458
                                                         0.548949       0.095099
                                                         1.426820       0.028232
                          1       5    3dyz              0.109280       0.001708
                                                         0.155613       0.003503
                                                         0.238409       0.189586
                                                         0.548949       0.164717
                                                         1.426820       0.048900
                          1       5    3dz2              0.109280       0.000986
                                                         0.155613       0.002022
                                                         0.238409       0.109458
                                                         0.548949       0.095099
                                                         1.426820       0.028232

                          2       1    1s                3.462516       0.753460
                                                         1.426055       0.121219

     AE Potential information for                                            ALL

       Description:                                       All-electron potential
                                          Krack, Parrinello, PCCP 2, 2105 (2000)

       Gaussian exponent of the core charge distribution:               2.655410
       Electronic configuration (s p d ...):                           4   1   0

  2. Atomic kind: N                                     Number of atoms:       1

     Orbital Basis Set                                         aug-SZV-MOLOPT-ae

       Number of orbital shell sets:                                           2
       Number of orbital shells:                                               6
       Number of primitive Cartesian functions:                               13
       Number of Cartesian basis functions:                                   15
       Number of spherical basis functions:                                   14
       Norm type:                                                              2

       Normalised Cartesian orbitals:

                        Set   Shell   Orbital            Exponent    Coefficient

                          1       1    1s                0.090000       0.000000
                                                         0.184684       0.048330
                                                         0.402911       0.214496
                                                         0.927724       0.168591
                                                         2.411326      -0.046594
                                                         7.758467      -0.155691
                                                        39.198808      -0.147969

                          1       2    2s                0.090000      -0.118940
                                                         0.184684       0.080942
                                                         0.402911      -0.164238
                                                         0.927724      -0.024406
                                                         2.411326       0.000000
                                                         7.758467       0.000000
                                                        39.198808       0.000000

                          1       3    2px               0.090000       0.000000
                                                         0.184684       0.017552
                                                         0.402911       0.194858
                                                         0.927724       0.542535
                                                         2.411326       0.744820
                                                         7.758467       0.695446
                                                        39.198808       0.525635
                          1       3    2py               0.090000       0.000000
                                                         0.184684       0.017552
                                                         0.402911       0.194858
                                                         0.927724       0.542535
                                                         2.411326       0.744820
                                                         7.758467       0.695446
                                                        39.198808       0.525635
                          1       3    2pz               0.090000       0.000000
                                                         0.184684       0.017552
                                                         0.402911       0.194858
                                                         0.927724       0.542535
                                                         2.411326       0.744820
                                                         7.758467       0.695446
                                                        39.198808       0.525635

                          1       4    3px               0.090000      -0.032237
                                                         0.184684      -0.080882
                                                         0.402911       0.112185
                                                         0.927724       1.067728
                                                         2.411326       0.000000
                                                         7.758467       0.000000
                                                        39.198808       0.000000
                          1       4    3py               0.090000      -0.032237
                                                         0.184684      -0.080882
                                                         0.402911       0.112185
                                                         0.927724       1.067728
                                                         2.411326       0.000000
                                                         7.758467       0.000000
                                                        39.198808       0.000000
                          1       4    3pz               0.090000      -0.032237
                                                         0.184684      -0.080882
                                                         0.402911       0.112185
                                                         0.927724       1.067728
                                                         2.411326       0.000000
                                                         7.758467       0.000000
                                                        39.198808       0.000000

                          1       5    3dx2              0.090000      -0.010633
                                                         0.184684      -0.050923
                                                         0.402911       0.103346
                                                         0.927724      -0.777682
                                                         2.411326       0.000000
                                                         7.758467       0.000000
                                                        39.198808       0.000000
                          1       5    3dxy              0.090000      -0.018417
                                                         0.184684      -0.088201
                                                         0.402911       0.179000
                                                         0.927724      -1.346985
                                                         2.411326       0.000000
                                                         7.758467       0.000000
                                                        39.198808       0.000000
                          1       5    3dxz              0.090000      -0.018417
                                                         0.184684      -0.088201
                                                         0.402911       0.179000
                                                         0.927724      -1.346985
                                                         2.411326       0.000000
                                                         7.758467       0.000000
                                                        39.198808       0.000000
                          1       5    3dy2              0.090000      -0.010633
                                                         0.184684      -0.050923
                                                         0.402911       0.103346
                                                         0.927724      -0.777682
                                                         2.411326       0.000000
                                                         7.758467       0.000000
                                                        39.198808       0.000000
                          1       5    3dyz              0.090000      -0.018417
                                                         0.184684      -0.088201
                                                         0.402911       0.179000
                                                         0.927724      -1.346985
                                                         2.411326       0.000000
                                                         7.758467       0.000000
                                                        39.198808       0.000000
                          1       5    3dz2              0.090000      -0.010633
                                                         0.184684      -0.050923
                                                         0.402911       0.103346
                                                         0.927724      -0.777682
                                                         2.411326       0.000000
                                                         7.758467       0.000000
                                                        39.198808       0.000000

                          2       1    1s             1027.828458       1.185541
                                                       188.451223       1.789359
                                                        52.721861       2.350183
                                                        18.111382       2.318652
                                                         7.033180       1.281976
                                                         2.896652       0.206248

     RI Auxiliary Basis Set             RI_aug-SZV-MOLOPT-ae_N_RI_043_s_p_d_f_g_

       Number of orbital shell sets:                                          15
       Number of orbital shells:                                              15
       Number of primitive Cartesian functions:                               15
       Number of Cartesian basis functions:                                   49
       Number of spherical basis functions:                                   43
       Norm type:                                                              2

       Normalised Cartesian orbitals:

                        Set   Shell   Orbital            Exponent    Coefficient

                          1       1    1s                0.348881       0.323533

                          2       1   12dx2              0.415899       0.354517
                          2       1   12dxy              0.415899       0.614042
                          2       1   12dxz              0.415899       0.614042
                          2       1   12dy2              0.415899       0.354517
                          2       1   12dyz              0.415899       0.614042
                          2       1   12dz2              0.415899       0.354517

                          3       1    7px               0.565430       0.698898
                          3       1    7py               0.565430       0.698898
                          3       1    7pz               0.565430       0.698898

                          4       1    2s                0.604256       0.488456

                          5       1    8px               0.736384       0.972345
                          5       1    8py               0.736384       0.972345
                          5       1    8pz               0.736384       0.972345

                          6       1   15fx3              1.197807       2.209658
                          6       1   15fx2y             1.197807       4.940945
                          6       1   15fx2z             1.197807       4.940945
                          6       1   15fxy2             1.197807       4.940945
                          6       1   15fxyz             1.197807       8.557969
                          6       1   15fxz2             1.197807       4.940945
                          6       1   15fy3              1.197807       2.209658
                          6       1   15fy2z             1.197807       4.940945
                          6       1   15fyz2             1.197807       4.940945
                          6       1   15fz3              1.197807       2.209658

                          7       1   13dx2              1.339145       2.743833
                          7       1   13dxy              1.339145       4.752458
                          7       1   13dxz              1.339145       4.752458
                          7       1   13dy2              1.339145       2.743833
                          7       1   13dyz              1.339145       4.752458
                          7       1   13dz2              1.339145       2.743833

                          8       1    3s                2.115726       1.250273

                          9       1    9px               3.057998       5.764167
                          9       1    9py               3.057998       5.764167
                          9       1    9pz               3.057998       5.764167

                         10       1   14dx2              5.406341      31.549351
                         10       1   14dxy              5.406341      54.645078
                         10       1   14dxz              5.406341      54.645078
                         10       1   14dy2              5.406341      31.549351
                         10       1   14dyz              5.406341      54.645078
                         10       1   14dz2              5.406341      31.549351

                         11       1    4s                8.101925       3.422562

                         12       1   10px               9.242623      22.971223
                         12       1   10py               9.242623      22.971223
                         12       1   10pz               9.242623      22.971223

                         13       1   11px              24.533825      77.829934
                         13       1   11py              24.533825      77.829934
                         13       1   11pz              24.533825      77.829934

                         14       1    5s               30.207474       9.183239

                         15       1    6s              110.078037      24.220639

       Atomic covalent radius [Angstrom]:                                  0.750

       Atomic van der Waals radius [Angstrom]:                             1.550

     The atoms of this atomic kind are PAW atoms (GAPW):
       Hard Gaussian function radius:                                      1.512
       Rho0 radius:                                                        1.512
       Maximum GTO radius used for PAW projector construction:            24.566

     GAPW Soft Basis Set                                  aug-SZV-MOLOPT-ae_soft

       Number of orbital shell sets:                                           2
       Number of orbital shells:                                               6
       Number of primitive Cartesian functions:                                6
       Number of Cartesian basis functions:                                   15
       Number of spherical basis functions:                                   14
       Norm type:                                                              2

       Normalised Cartesian orbitals:

                        Set   Shell   Orbital            Exponent    Coefficient

                          1       1    1s                0.090000       0.000000
                                                         0.184684       0.048330
                                                         0.402911       0.214496
                                                         0.927724       0.168591
                                                         2.411326      -0.046594

                          1       2    2s                0.090000      -0.118940
                                                         0.184684       0.080942
                                                         0.402911      -0.164238
                                                         0.927724      -0.024406
                                                         2.411326       0.000000

                          1       3    2px               0.090000       0.000000
                                                         0.184684       0.017552
                                                         0.402911       0.194858
                                                         0.927724       0.542535
                                                         2.411326       0.744820
                          1       3    2py               0.090000       0.000000
                                                         0.184684       0.017552
                                                         0.402911       0.194858
                                                         0.927724       0.542535
                                                         2.411326       0.744820
                          1       3    2pz               0.090000       0.000000
                                                         0.184684       0.017552
                                                         0.402911       0.194858
                                                         0.927724       0.542535
                                                         2.411326       0.744820

                          1       4    3px               0.090000      -0.032237
                                                         0.184684      -0.080882
                                                         0.402911       0.112185
                                                         0.927724       1.067728
                                                         2.411326       0.000000
                          1       4    3py               0.090000      -0.032237
                                                         0.184684      -0.080882
                                                         0.402911       0.112185
                                                         0.927724       1.067728
                                                         2.411326       0.000000
                          1       4    3pz               0.090000      -0.032237
                                                         0.184684      -0.080882
                                                         0.402911       0.112185
                                                         0.927724       1.067728
                                                         2.411326       0.000000

                          1       5    3dx2              0.090000      -0.010633
                                                         0.184684      -0.050923
                                                         0.402911       0.103346
                                                         0.927724      -0.777682
                                                         2.411326       0.000000
                          1       5    3dxy              0.090000      -0.018417
                                                         0.184684      -0.088201
                                                         0.402911       0.179000
                                                         0.927724      -1.346985
                                                         2.411326       0.000000
                          1       5    3dxz              0.090000      -0.018417
                                                         0.184684      -0.088201
                                                         0.402911       0.179000
                                                         0.927724      -1.346985
                                                         2.411326       0.000000
                          1       5    3dy2              0.090000      -0.010633
                                                         0.184684      -0.050923
                                                         0.402911       0.103346
                                                         0.927724      -0.777682
                                                         2.411326       0.000000
                          1       5    3dyz              0.090000      -0.018417
                                                         0.184684      -0.088201
                                                         0.402911       0.179000
                                                         0.927724      -1.346985
                                                         2.411326       0.000000
                          1       5    3dz2              0.090000      -0.010633
                                                         0.184684      -0.050923
                                                         0.402911       0.103346
                                                         0.927724      -0.777682
                                                         2.411326       0.000000

                          2       1    1s                2.896652       0.206248

     AE Potential information for                                            ALL

       Description:                                       All-electron potential
                                          Krack, Parrinello, PCCP 2, 2105 (2000)

       Gaussian exponent of the core charge distribution:               5.979100
       Electronic configuration (s p d ...):                           4   3   0


 MOLECULE KIND INFORMATION


 All atoms are their own molecule, skipping detailed information


 TOTAL NUMBERS AND MAXIMUM NUMBERS

  Total number of            - Atomic kinds:                                   2
                             - Atoms:                                          2
                             - Shell sets:                                     4
                             - Shells:                                        12
                             - Primitive Cartesian functions:                 26
                             - Cartesian basis functions:                     30
                             - Spherical basis functions:                     28

  Maximum angular momentum of the orbital basis functions:                     2


 MODULE QUICKSTEP: ATOMIC COORDINATES IN ANGSTROM

   Atom Kind Element         X             Y             Z       Z(eff)     Mass
      1    1 B     5     14.358500     15.000000     15.000000   5.0000  10.8110
      2    2 N     7     15.641500     15.000000     15.000000   7.0000  14.0067



 SCF PARAMETERS         Density guess:                                    ATOMIC
                        --------------------------------------------------------
                        max_scf:                                             500
                        max_scf_history:                                       0
                        max_diis:                                              4
                        --------------------------------------------------------
                        eps_scf:                                        1.00E-06
                        eps_scf_history:                                0.00E+00
                        eps_diis:                                       1.00E-01
                        eps_eigval:                                     1.00E-05
                        --------------------------------------------------------
                        level_shift [a.u.]:                             0.000000
                        added MOs                                        22    0
                        --------------------------------------------------------
                        Mixing method:                            BROYDEN_MIXING
                                                charge density mixing in g-space
                        --------------------------------------------------------
                        No outer SCF

 PW_GRID| Information for grid number                                          1
 PW_GRID| Grid distributed over                                    48 processors
 PW_GRID| Real space group dimensions                                    48    1
 PW_GRID| the grid is blocked:                                                NO
 PW_GRID| Cutoff [a.u.]                                                    250.0
 PW_GRID| spherical cutoff:                                                   NO
 PW_GRID|   Bounds   1           -202     202                Points:         405
 PW_GRID|   Bounds   2           -202     202                Points:         405
 PW_GRID|   Bounds   3           -202     202                Points:         405
 PW_GRID| Volume element (a.u.^3)  0.2743E-02     Volume (a.u.^3)    182205.0337
 PW_GRID| Grid span                                                    FULLSPACE
 PW_GRID|   Distribution                         Average         Max         Min
 PW_GRID|   G-Vectors                          1383960.9     1384290     1383885
 PW_GRID|   G-Rays                                3417.2        3418        3417
 PW_GRID|   Real Space Points                  1383960.9     1476225     1312200

 PW_GRID| Information for grid number                                          2
 PW_GRID| Number of the reference grid                                         1
 PW_GRID| Grid distributed over                                    48 processors
 PW_GRID| Real space group dimensions                                    48    1
 PW_GRID| the grid is blocked:                                                NO
 PW_GRID| Cutoff [a.u.]                                                     83.3
 PW_GRID| spherical cutoff:                                                   NO
 PW_GRID|   Bounds   1           -120     119                Points:         240
 PW_GRID|   Bounds   2           -120     119                Points:         240
 PW_GRID|   Bounds   3           -120     119                Points:         240
 PW_GRID| Volume element (a.u.^3)  0.1318E-01     Volume (a.u.^3)    182205.0337
 PW_GRID| Grid span                                                    FULLSPACE
 PW_GRID|   Distribution                         Average         Max         Min
 PW_GRID|   G-Vectors                           288000.0      288720      287520
 PW_GRID|   G-Rays                                1200.0        1203        1198
 PW_GRID|   Real Space Points                   288000.0      288000      288000

 PW_GRID| Information for grid number                                          3
 PW_GRID| Number of the reference grid                                         1
 PW_GRID| Grid distributed over                                    48 processors
 PW_GRID| Real space group dimensions                                    48    1
 PW_GRID| the grid is blocked:                                                NO
 PW_GRID| Cutoff [a.u.]                                                     27.8
 PW_GRID| spherical cutoff:                                                   NO
 PW_GRID|   Bounds   1            -67      67                Points:         135
 PW_GRID|   Bounds   2            -67      67                Points:         135
 PW_GRID|   Bounds   3            -67      67                Points:         135
 PW_GRID| Volume element (a.u.^3)  0.7406E-01     Volume (a.u.^3)    182205.0337
 PW_GRID| Grid span                                                    FULLSPACE
 PW_GRID|   Distribution                         Average         Max         Min
 PW_GRID|   G-Vectors                            51257.8       51570       51030
 PW_GRID|   G-Rays                                 379.7         382         378
 PW_GRID|   Real Space Points                    51257.8       54675       36450

 PW_GRID| Information for grid number                                          4
 PW_GRID| Number of the reference grid                                         1
 PW_GRID| Grid distributed over                                    48 processors
 PW_GRID| Real space group dimensions                                    48    1
 PW_GRID| the grid is blocked:                                                NO
 PW_GRID| Cutoff [a.u.]                                                      9.3
 PW_GRID| spherical cutoff:                                                   NO
 PW_GRID|   Bounds   1            -40      39                Points:          80
 PW_GRID|   Bounds   2            -40      39                Points:          80
 PW_GRID|   Bounds   3            -40      39                Points:          80
 PW_GRID| Volume element (a.u.^3)  0.3559         Volume (a.u.^3)    182205.0337
 PW_GRID| Grid span                                                    FULLSPACE
 PW_GRID|   Distribution                         Average         Max         Min
 PW_GRID|   G-Vectors                            10666.7       10800       10560
 PW_GRID|   G-Rays                                 133.3         135         132
 PW_GRID|   Real Space Points                    10666.7       12800        6400

 POISSON| Solver                                                         WAVELET
 POISSON| Wavelet| Scaling function                                           40
 POISSON| Periodicity                                                       NONE

 RS_GRID| Information for grid number                                          1
 RS_GRID|   Bounds   1           -202     202                Points:         405
 RS_GRID|   Bounds   2           -202     202                Points:         405
 RS_GRID|   Bounds   3           -202     202                Points:         405
 RS_GRID| Real space distribution over                                  3 groups
 RS_GRID| Real space distribution along direction                              1
 RS_GRID| Border size                                                         34
 RS_GRID| Real space distribution over                                  4 groups
 RS_GRID| Real space distribution along direction                              2
 RS_GRID| Border size                                                         34
 RS_GRID| Real space distribution over                                  4 groups
 RS_GRID| Real space distribution along direction                              3
 RS_GRID| Border size                                                         34
 RS_GRID|   Distribution                         Average         Max         Min
 RS_GRID|   Planes                                 203.0         203         203
 RS_GRID|   Distribution                         Average         Max         Min
 RS_GRID|   Planes                                 169.2         170         169
 RS_GRID|   Distribution                         Average         Max         Min
 RS_GRID|   Planes                                 169.2         170         169

 RS_GRID| Information for grid number                                          2
 RS_GRID|   Bounds   1           -120     119                Points:         240
 RS_GRID|   Bounds   2           -120     119                Points:         240
 RS_GRID|   Bounds   3           -120     119                Points:         240
 RS_GRID| Real space distribution over                                  3 groups
 RS_GRID| Real space distribution along direction                              1
 RS_GRID| Border size                                                         37
 RS_GRID| Real space distribution over                                  4 groups
 RS_GRID| Real space distribution along direction                              2
 RS_GRID| Border size                                                         37
 RS_GRID| Real space distribution over                                  4 groups
 RS_GRID| Real space distribution along direction                              3
 RS_GRID| Border size                                                         37
 RS_GRID|   Distribution                         Average         Max         Min
 RS_GRID|   Planes                                 154.0         154         154
 RS_GRID|   Distribution                         Average         Max         Min
 RS_GRID|   Planes                                 134.0         134         134
 RS_GRID|   Distribution                         Average         Max         Min
 RS_GRID|   Planes                                 134.0         134         134

 RS_GRID| Information for grid number                                          3
 RS_GRID|   Bounds   1            -67      67                Points:         135
 RS_GRID|   Bounds   2            -67      67                Points:         135
 RS_GRID|   Bounds   3            -67      67                Points:         135
 RS_GRID| Real space fully replicated
 RS_GRID| Group size                                                           1

 RS_GRID| Information for grid number                                          4
 RS_GRID|   Bounds   1            -40      39                Points:          80
 RS_GRID|   Bounds   2            -40      39                Points:          80
 RS_GRID|   Bounds   3            -40      39                Points:          80
 RS_GRID| Real space fully replicated
 RS_GRID| Group size                                                           1

  HFX_INFO| Replica ID:                                                        1
  HFX_INFO| FRACTION:                                               0.2500000000
  HFX_INFO| Interaction Potential:                                       COULOMB
  HFX_INFO| EPS_SCHWARZ:                                                 1.0E-10
  HFX_INFO| EPS_SCHWARZ_FORCES                                           1.0E-08
  HFX_INFO| EPS_STORAGE_SCALING:                                         1.0E+00
  HFX_INFO| NBINS:                                                            64
  HFX_INFO| BLOCK_SIZE:                                                        1
  HFX_INFO| Number of periodic shells considered:                           NONE
  HFX_INFO| Number of periodic cells considered:                            NONE

 
 RI-RPA| using GPW style
 

 OVERLAP MATRIX CONDITION NUMBER
 1-Norm Condition Number (Estimate)
   CN : |A|*|A^-1|:  4.760E+000 *  1.125E+002   = 5.353E+002  Log(1-CN):  2.7286
 1-Norm and 2-Norm Condition Numbers using Diagonalization
   CN : |A|*|A^-1|:  4.760E+000 *  1.125E+002   = 5.353E+002  Log(1-CN):  2.7286
   CN : max/min ev:  3.483E+000 /  1.452E-002   = 2.398E+002  Log(2-CN):  2.3799

 Number of electrons:                                                         12
 Number of occupied orbitals:                                                  6
 Number of molecular orbitals:                                                28

 Number of orbital functions:                                                 28
 Number of independent orbital functions:                                     28

 Extrapolation method: initial_guess

 Atomic guess: The first density matrix is obtained in terms of atomic orbitals
               and electronic configurations assigned to each atomic kind

 Guess for atomic kind: B

 Electronic structure
    Total number of core electrons                                          0.00
    Total number of valence electrons                                       5.00
    Total number of electrons                                               5.00
    Multiplicity                                                   not specified
    S      2.00  2.00
    P      1.00


 *******************************************************************************
                  Iteration          Convergence                     Energy [au]
 *******************************************************************************
                          1        0.612489E-01                 -24.304439508901
                          2        0.220484E-01                 -24.305945213911
                          3        0.367076E-03                 -24.306247196960
                          4        0.456899E-05                 -24.306247340970
                          5        0.241868E-07                 -24.306247340986

 Energy components [Hartree]           Total Energy ::          -24.306247340986
                                        Band Energy ::          -13.825803348850
                                     Kinetic Energy ::           23.970530113188
                                   Potential Energy ::          -48.276777454174
                                      Virial (-V/T) ::            2.014005415242
                                        Core Energy ::          -32.361048727638
                                          XC Energy ::           -3.546375173816
                                     Coulomb Energy ::           11.601176560468

 Orbital energies  State     L     Occupation   Energy[a.u.]          Energy[eV]

                       1     0          2.000      -6.531739         -177.737651
                       2     0          2.000      -0.324835           -8.839199

                       1     1          1.000      -0.112657           -3.065543


 Total Electron Density at R=0:                                        58.671969

 Guess for atomic kind: N

 Electronic structure
    Total number of core electrons                                          0.00
    Total number of valence electrons                                       7.00
    Total number of electrons                                               7.00
    Multiplicity                                                   not specified
    S      2.00  2.00
    P      3.00


 *******************************************************************************
                  Iteration          Convergence                     Energy [au]
 *******************************************************************************
                          1        0.325929                     -53.884153266199
                          2        0.157204                     -53.911997171341
                          3        0.119206E-02                 -53.921312470162
                          4        0.146154E-04                 -53.921312958938
                          5        0.703430E-05                 -53.921312958993
                          6        0.461880E-05                 -53.921312959002
                          7        0.894723E-08                 -53.921312959009

 Energy components [Hartree]           Total Energy ::          -53.921312959009
                                        Band Energy ::          -30.455902305516
                                     Kinetic Energy ::           53.519410139912
                                   Potential Energy ::         -107.440723098921
                                      Virial (-V/T) ::            2.007509477740
                                        Core Energy ::          -73.216670532427
                                          XC Energy ::           -6.109461717977
                                     Coulomb Energy ::           25.404819291395

 Orbital energies  State     L     Occupation   Energy[a.u.]          Energy[eV]

                       1     0          2.000     -14.102420         -383.746365
                       2     0          2.000      -0.702220          -19.108372

                       1     1          3.000      -0.282208           -7.679258


 Total Electron Density at R=0:                                       175.030911
 Re-scaling the density matrix to get the right number of electrons
                  # Electrons              Trace(P)               Scaling factor
                           12                12.000                        1.000


 SCF WAVEFUNCTION OPTIMIZATION

  Step     Update method      Time    Convergence         Total energy    Change
  ------------------------------------------------------------------------------

  HFX_MEM_INFO| Est. max. program size before HFX [MiB]:                    1304
  HFX_MEM_INFO| Number of cart. primitive ERI's calculated:            191122750
  HFX_MEM_INFO| Number of sph. ERI's calculated:                          230496
  HFX_MEM_INFO| Number of sph. ERI's stored in-core:                      230496
  HFX_MEM_INFO| Number of sph. ERI's stored on disk:                           0
  HFX_MEM_INFO| Number of sph. ERI's calculated on the fly:                    0
  HFX_MEM_INFO| Total memory consumption ERI's RAM [MiB]:                      3
  HFX_MEM_INFO| Whereof max-vals [MiB]:                                        2
  HFX_MEM_INFO| Total compression factor ERI's RAM:                         0.76
  HFX_MEM_INFO| Total memory consumption ERI's disk [MiB]:                     0
  HFX_MEM_INFO| Total compression factor ERI's disk:                        0.00
  HFX_MEM_INFO| Size of density/Fock matrix [MiB]:                             0
  HFX_MEM_INFO| Size of buffers [MiB]:                                         0
  HFX_MEM_INFO| Est. max. program size after HFX  [MiB]:                    1819

     1 NoMix/Diag. 0.10E+00    7.6     0.79848434       -79.3766582886 -7.94E+01
     2 Broy./Diag. 0.10E+00    2.6     0.10434636       -77.8892066486  1.49E+00
     3 Broy./Diag. 0.10E+00    2.6     0.06777939       -77.7480347730  1.41E-01
     4 Broy./Diag. 0.10E+00    2.7     0.45264023       -78.1121887249 -3.64E-01
     5 Broy./Diag. 0.10E+00    2.7     0.11564946       -78.8716768856 -7.59E-01
     6 Broy./Diag. 0.10E+00    2.7     0.10039395       -78.4772862231  3.94E-01
     7 Broy./Diag. 0.10E+00    2.8     0.50998600       -78.4706131618  6.67E-03
     8 Broy./Diag. 0.10E+00    2.8     0.08233881       -79.2821290202 -8.12E-01
     9 Broy./Diag. 0.10E+00    2.9     0.10083058       -79.2199240761  6.22E-02
    10 Broy./Diag. 0.10E+00    2.9     0.04599313       -79.2454858893 -2.56E-02
    11 Broy./Diag. 0.10E+00    3.0     0.15798560       -79.2064652647  3.90E-02
    12 Broy./Diag. 0.10E+00    2.9     0.10328356       -79.0224229531  1.84E-01
    13 Broy./Diag. 0.10E+00    2.9     0.06538679       -78.9541409051  6.83E-02
    14 Broy./Diag. 0.10E+00    2.9     0.02690841       -78.9288865677  2.53E-02
    15 Broy./Diag. 0.10E+00    2.9     0.01164664       -78.9314309502 -2.54E-03
    16 Broy./Diag. 0.10E+00    2.9     0.19304174       -78.9884243231 -5.70E-02
    17 Broy./Diag. 0.10E+00    2.9     0.14436460       -79.2403301675 -2.52E-01
    18 Broy./Diag. 0.10E+00    2.9     0.08342107       -79.3555233084 -1.15E-01
    19 Broy./Diag. 0.10E+00    2.9     0.05915237       -79.3998322637 -4.43E-02
    20 Broy./Diag. 0.10E+00    2.9     0.04469482       -79.4265134686 -2.67E-02
    21 Broy./Diag. 0.10E+00    2.9     0.01688472       -79.4409873189 -1.45E-02
    22 Broy./Diag. 0.10E+00    3.0     0.01338300       -79.4311119015  9.88E-03
    23 Broy./Diag. 0.10E+00    2.9     0.02994955       -79.4128104383  1.83E-02
    24 Broy./Diag. 0.10E+00    2.9     0.04591773       -79.4440014428 -3.12E-02
    25 Broy./Diag. 0.10E+00    2.9     0.11783857       -79.5084059349 -6.44E-02
    26 Broy./Diag. 0.10E+00    2.9     0.06201149       -79.6273670096 -1.19E-01
    27 Broy./Diag. 0.10E+00    2.9     0.02953415       -79.6470130728 -1.96E-02
    28 Broy./Diag. 0.10E+00    2.9     0.02516321       -79.6392512387  7.76E-03
    29 Broy./Diag. 0.10E+00    3.0     0.04420960       -79.6106068156  2.86E-02
    30 Broy./Diag. 0.10E+00    2.9     0.03669797       -79.5624282075  4.82E-02
    31 Broy./Diag. 0.10E+00    2.9     0.02242726       -79.5412055644  2.12E-02
    32 Broy./Diag. 0.10E+00    3.0     0.07755282       -79.5695680167 -2.84E-02
    33 Broy./Diag. 0.10E+00    2.9     0.24547204       -79.4593219718  1.10E-01
    34 Broy./Diag. 0.10E+00    2.9     0.21524075       -79.2067758814  2.53E-01
    35 Broy./Diag. 0.10E+00    2.9     0.09838649       -79.0519718699  1.55E-01
    36 Broy./Diag. 0.10E+00    2.9     0.09813060       -79.0193976320  3.26E-02
    37 Broy./Diag. 0.10E+00    3.1     0.05626645       -78.9519945728  6.74E-02
    38 Broy./Diag. 0.10E+00    2.9     0.01322062       -78.9256066375  2.64E-02
    39 Broy./Diag. 0.10E+00    2.9     0.01042454       -78.9373165533 -1.17E-02
    40 Broy./Diag. 0.10E+00    2.9     0.00859902       -78.9454652341 -8.15E-03
    41 Broy./Diag. 0.10E+00    2.9     0.00186875       -78.9356394959  9.83E-03
    42 Broy./Diag. 0.10E+00    2.9     0.00480688       -78.9398690628 -4.23E-03
    43 Broy./Diag. 0.10E+00    3.0     0.01595242       -78.9517059898 -1.18E-02
    44 Broy./Diag. 0.10E+00    2.9     0.02595895       -78.9720591510 -2.04E-02
    45 Broy./Diag. 0.10E+00    2.9     0.01057822       -78.9801411967 -8.08E-03
    46 Broy./Diag. 0.10E+00    2.9     0.05189247       -78.9732369730  6.90E-03
    47 Broy./Diag. 0.10E+00    2.9     0.09026817       -79.0421281137 -6.89E-02
    48 Broy./Diag. 0.10E+00    2.9     0.05165305       -79.1271557672 -8.50E-02
    49 Broy./Diag. 0.10E+00    2.9     0.02167595       -79.1511868902 -2.40E-02
    50 Broy./Diag. 0.10E+00    2.9     0.03464796       -79.1572610305 -6.07E-03
    51 Broy./Diag. 0.10E+00    2.9     0.01037329       -79.1888654619 -3.16E-02
    52 Broy./Diag. 0.10E+00    2.9     0.05237646       -79.1771653177  1.17E-02
    53 Broy./Diag. 0.10E+00    2.9     0.01593139       -79.1129782409  6.42E-02
[...]
 *    |             please set the keyword IGNORE_CONVERGENCE_FAILURE.         *
 *  O/|                                                                        *
 * /| |                                                                        *
 * / \                                                            qs_scf.F:611 *
 *******************************************************************************


 ===== Routine Calling Stack ===== 

            3 scf_env_do_scf
            2 qs_energies
            1 CP2K

 *******************************************************************************
 *   ___                                                                       *
 *  /   \                                                                      *
 * [ABORT]                                                                     *
 *  \___/     SCF run NOT converged. To continue the calculation regardless,   *
 *    |             please set the keyword IGNORE_CONVERGENCE_FAILURE.         *
 *  O/|                                                                        *
 * /| |                                                                        *
 * / \                                                            qs_scf.F:611 *
 *******************************************************************************


 ===== Routine Calling Stack ===== 

            3 scf_env_do_scf
            2 qs_energies
            1 CP2K

 *******************************************************************************
 *   ___                                                                       *
 *  /   \                                                                      *
 * [ABORT]                                                                     *
 *  \___/     SCF run NOT converged. To continue the calculation regardless,   *
 *    |             please set the keyword IGNORE_CONVERGENCE_FAILURE.         *
 *  O/|                                                                        *
 * /| |                                                                        *
 * / \                                                            qs_scf.F:611 *
 *******************************************************************************


 ===== Routine Calling Stack ===== 

            3 scf_env_do_scf
            2 qs_energies
            1 CP2K

 *******************************************************************************
 *   ___                                                                       *
 *  /   \                                                                      *
 * [ABORT]                                                                     *
 *  \___/     SCF run NOT converged. To continue the calculation regardless,   *
 *    |             please set the keyword IGNORE_CONVERGENCE_FAILURE.         *
 *  O/|                                                                        *
 * /| |                                                                        *
 * / \                                                            qs_scf.F:611 *
 *******************************************************************************


 ===== Routine Calling Stack ===== 

            3 scf_env_do_scf
            2 qs_energies
            1 CP2K

 *******************************************************************************
 *   ___                                                                       *
 *  /   \                                                                      *
 * [ABORT]                                                                     *
 *  \___/     SCF run NOT converged. To continue the calculation regardless,   *
 *    |             please set the keyword IGNORE_CONVERGENCE_FAILURE.         *
 *  O/|                                                                        *
 * /| |                                                                        *
 * / \                                                            qs_scf.F:611 *
 *******************************************************************************


 ===== Routine Calling Stack ===== 

            3 scf_env_do_scf
            2 qs_energies
            1 CP2K

 *******************************************************************************
 *   ___                                                                       *
 *  /   \                                                                      *
 * [ABORT]                                                                     *
 *  \___/     SCF run NOT converged. To continue the calculation regardless,   *
 *    |             please set the keyword IGNORE_CONVERGENCE_FAILURE.         *
 *  O/|                                                                        *
 * /| |                                                                        *
 * / \                                                            qs_scf.F:611 *
 *******************************************************************************


 ===== Routine Calling Stack ===== 

            3 scf_env_do_scf
            2 qs_energies
            1 CP2K

 *******************************************************************************
 *   ___                                                                       *
 *  /   \                                                                      *
 * [ABORT]                                                                     *
 *  \___/     SCF run NOT converged. To continue the calculation regardless,   *
 *    |             please set the keyword IGNORE_CONVERGENCE_FAILURE.         *
 *  O/|                                                                        *
 * /| |                                                                        *
 * / \                                                            qs_scf.F:611 *
 *******************************************************************************


 ===== Routine Calling Stack ===== 

            3 scf_env_do_scf
            2 qs_energies
            1 CP2K

 *******************************************************************************
 *   ___                                                                       *
 *  /   \                                                                      *
 * [ABORT]                                                                     *
 *  \___/     SCF run NOT converged. To continue the calculation regardless,   *
 *    |             please set the keyword IGNORE_CONVERGENCE_FAILURE.         *
 *  O/|                                                                        *
 * /| |                                                                        *
 * / \                                                            qs_scf.F:611 *
 *******************************************************************************


 ===== Routine Calling Stack ===== 

            3 scf_env_do_scf
            2 qs_energies
            1 CP2K

 *******************************************************************************
 *   ___                                                                       *
 *  /   \                                                                      *
 * [ABORT]                                                                     *
 *  \___/     SCF run NOT converged. To continue the calculation regardless,   *
 *    |             please set the keyword IGNORE_CONVERGENCE_FAILURE.         *
 *  O/|                                                                        *
 * /| |                                                                        *
 * / \                                                            qs_scf.F:611 *
 *******************************************************************************


 ===== Routine Calling Stack ===== 

            3 scf_env_do_scf
            2 qs_energies
            1 CP2K

 *******************************************************************************
 *   ___                                                                       *
 *  /   \                                                                      *
 * [ABORT]                                                                     *
 *  \___/     SCF run NOT converged. To continue the calculation regardless,   *
 *    |             please set the keyword IGNORE_CONVERGENCE_FAILURE.         *
 *  O/|                                                                        *
 * /| |                                                                        *
 * / \                                                            qs_scf.F:611 *
 *******************************************************************************


 ===== Routine Calling Stack ===== 

            3 scf_env_do_scf
            2 qs_energies
            1 CP2K

 *******************************************************************************
 *   ___                                                                       *
 *  /   \                                                                      *
 * [ABORT]                                                                     *
 *  \___/     SCF run NOT converged. To continue the calculation regardless,   *
 *    |             please set the keyword IGNORE_CONVERGENCE_FAILURE.         *
 *  O/|                                                                        *
 * /| |                                                                        *
 * / \                                                            qs_scf.F:611 *
 *******************************************************************************


 ===== Routine Calling Stack ===== 

            3 scf_env_do_scf
            2 qs_energies
            1 CP2K

 *******************************************************************************
 *   ___                                                                       *
 *  /   \                                                                      *
 * [ABORT]                                                                     *
 *  \___/     SCF run NOT converged. To continue the calculation regardless,   *
 *    |             please set the keyword IGNORE_CONVERGENCE_FAILURE.         *
 *  O/|                                                                        *
 * /| |                                                                        *
 * / \                                                            qs_scf.F:611 *
 *******************************************************************************


 ===== Routine Calling Stack ===== 

            3 scf_env_do_scf
            2 qs_energies
            1 CP2K

 *******************************************************************************
 *   ___                                                                       *
 *  /   \                                                                      *
 * [ABORT]                                                                     *
 *  \___/     SCF run NOT converged. To continue the calculation regardless,   *
 *    |             please set the keyword IGNORE_CONVERGENCE_FAILURE.         *
 *  O/|                                                                        *
 * /| |                                                                        *
 * / \                                                            qs_scf.F:611 *
 *******************************************************************************


 ===== Routine Calling Stack ===== 

            3 scf_env_do_scf
            2 qs_energies
            1 CP2K

 *******************************************************************************
 *   ___                                                                       *
 *  /   \                                                                      *
 * [ABORT]                                                                     *
 *  \___/     SCF run NOT converged. To continue the calculation regardless,   *
 *    |             please set the keyword IGNORE_CONVERGENCE_FAILURE.         *
 *  O/|                                                                        *
 * /| |                                                                        *
 * / \                                                            qs_scf.F:611 *
 *******************************************************************************


 ===== Routine Calling Stack ===== 

            3 scf_env_do_scf
            2 qs_energies
            1 CP2K

 *******************************************************************************
 *   ___                                                                       *
 *  /   \                                                                      *
 * [ABORT]                                                                     *
 *  \___/     SCF run NOT converged. To continue the calculation regardless,   *
 *    |             please set the keyword IGNORE_CONVERGENCE_FAILURE.         *
 *  O/|                                                                        *
 * /| |                                                                        *
 * / \                                                            qs_scf.F:611 *
 *******************************************************************************


 ===== Routine Calling Stack ===== 

            3 scf_env_do_scf
            2 qs_energies
            1 CP2K

 *******************************************************************************
 *   ___                                                                       *
 *  /   \                                                                      *
 * [ABORT]                                                                     *
 *  \___/     SCF run NOT converged. To continue the calculation regardless,   *
 *    |             please set the keyword IGNORE_CONVERGENCE_FAILURE.         *
 *  O/|                                                                        *
 * /| |                                                                        *
 * / \                                                            qs_scf.F:611 *
 *******************************************************************************


 ===== Routine Calling Stack ===== 

            3 scf_env_do_scf
            2 qs_energies
            1 CP2K

 *******************************************************************************
 *   ___                                                                       *
 *  /   \                                                                      *
 * [ABORT]                                                                     *
 *  \___/     SCF run NOT converged. To continue the calculation regardless,   *
 *    |             please set the keyword IGNORE_CONVERGENCE_FAILURE.         *
 *  O/|                                                                        *
 * /| |                                                                        *
 * / \                                                            qs_scf.F:611 *
 *******************************************************************************


 ===== Routine Calling Stack ===== 

            3 scf_env_do_scf
            2 qs_energies
            1 CP2K

 *******************************************************************************
 *   ___                                                                       *
 *  /   \                                                                      *
 * [ABORT]                                                                     *
 *  \___/     SCF run NOT converged. To continue the calculation regardless,   *
 *    |             please set the keyword IGNORE_CONVERGENCE_FAILURE.         *
 *  O/|                                                                        *
 * /| |                                                                        *
 * / \                                                            qs_scf.F:611 *
 *******************************************************************************


 ===== Routine Calling Stack ===== 

            3 scf_env_do_scf
            2 qs_energies
            1 CP2K

 *******************************************************************************
 *   ___                                                                       *
 *  /   \                                                                      *
 * [ABORT]                                                                     *
 *  \___/     SCF run NOT converged. To continue the calculation regardless,   *
 *    |             please set the keyword IGNORE_CONVERGENCE_FAILURE.         *
 *  O/|                                                                        *
 * /| |                                                                        *
 * / \                                                            qs_scf.F:611 *
 *******************************************************************************


 ===== Routine Calling Stack ===== 

            3 scf_env_do_scf
            2 qs_energies
            1 CP2K

 *******************************************************************************
 *   ___                                                                       *
 *  /   \                                                                      *
 * [ABORT]                                                                     *
 *  \___/     SCF run NOT converged. To continue the calculation regardless,   *
 *    |             please set the keyword IGNORE_CONVERGENCE_FAILURE.         *
 *  O/|                                                                        *
 * /| |                                                                        *
 * / \                                                            qs_scf.F:611 *
 *******************************************************************************


 ===== Routine Calling Stack ===== 

            3 scf_env_do_scf
            2 qs_energies
            1 CP2K

 *******************************************************************************
 *   ___                                                                       *
 *  /   \                                                                      *
 * [ABORT]                                                                     *
 *  \___/     SCF run NOT converged. To continue the calculation regardless,   *
 *    |             please set the keyword IGNORE_CONVERGENCE_FAILURE.         *
 *  O/|                                                                        *
 * /| |                                                                        *
 * / \                                                            qs_scf.F:611 *
 *******************************************************************************


 ===== Routine Calling Stack ===== 

            3 scf_env_do_scf
            2 qs_energies
            1 CP2K

 *******************************************************************************
 *   ___                                                                       *
 *  /   \                                                                      *
 * [ABORT]                                                                     *
 *  \___/     SCF run NOT converged. To continue the calculation regardless,   *
 *    |             please set the keyword IGNORE_CONVERGENCE_FAILURE.         *
 *  O/|                                                                        *
 * /| |                                                                        *
 * / \                                                            qs_scf.F:611 *
 *******************************************************************************


 ===== Routine Calling Stack ===== 

            3 scf_env_do_scf
            2 qs_energies
            1 CP2K
