 DBCSR| CPU Multiplication driver                                           BLAS (U)
 DBCSR| Multrec recursion limit                                              512 (U)
 DBCSR| Multiplication stack size                                           1000 (D)
 DBCSR| Maximum elements for images                                    UNLIMITED (U)
 DBCSR| Multiplicative factor virtual images                                   1 (U)
 DBCSR| Use multiplication densification                                       T (D)
 DBCSR| Multiplication size stacks                                             3 (U)
 DBCSR| Use memory pool for CPU allocation                                     F (U)
 DBCSR| Number of 3D layers                                               SINGLE (U)
 DBCSR| Use MPI memory allocation                                              F (U)
 DBCSR| Use RMA algorithm                                                      F (U)
 DBCSR| Use Communication thread                                               T (U)
 DBCSR| Communication thread load                                             75 (D)
 DBCSR| MPI: My process id                                                     0
 DBCSR| MPI: Number of processes                                              48
 DBCSR| OMP: Current number of threads                                         4
 DBCSR| OMP: Max number of threads                                             4
 DBCSR| Split modifier for TAS multiplication algorithm                  1.0E+00 (U)


  **** **** ******  **  PROGRAM STARTED AT               2025-03-26 05:14:08.931
 ***** ** ***  *** **   PROGRAM STARTED ON                          i05r05c06s05
 **    ****   ******    PROGRAM STARTED BY                               di38fab
 ***** **    ** ** **   PROGRAM PROCESS ID                               2462351
  **** **  *******  **  PROGRAM STARTED IN /hppfs/scratch/04/di38fab/05_MOL/W4-1
                                           1+ALK/li2/TZVP/GW+BSE/1e-4

 CP2K| version string:                 CP2K version 2025.1 (Development Version)
 CP2K| source code revision number:                                  git:d2e611a
 CP2K| cp2kflags: omp libint fftw3 libxc parallel scalapack max_contr=4         
 CP2K| is freely available from                            https://www.cp2k.org/
 CP2K| Program compiled at                       Thu 06 Mar 2025 05:09:20 PM CET
 CP2K| Program compiled on                                               login02
 CP2K| Program compiled for                                        Supermuc-foss
 CP2K| Data directory path                  /hppfs/work/pn36zo/di38fab/cp2k/data
 CP2K| Input file name                                                    GW.inp

 GLOBAL| Force Environment number                                              1
 GLOBAL| Basis set file name            /hppfs/scratch/04/di38fab/04_TMD/BASIS_A
 GLOBAL| Potential file name            /hppfs/work/pn36zo/di38fab/cp2k/data/ALL
 GLOBAL| MM Potential file name                                     MM_POTENTIAL
 GLOBAL| Coordinate file name                                      __STD_INPUT__
 GLOBAL| Method name                                                        CP2K
 GLOBAL| Project name                                                       MoS2
 GLOBAL| Run type                                                         ENERGY
 GLOBAL| FFT library                                                       FFTW3
 GLOBAL| Diagonalization library                                       ScaLAPACK
 GLOBAL| DGEMM library                                                      BLAS
 GLOBAL| Orthonormality check for eigenvectors                          DISABLED
 GLOBAL| Matrix multiplication library                                 ScaLAPACK
 GLOBAL| All-to-all communication in single precision                          F
 GLOBAL| FFTs using library dependent lengths                                  F
 GLOBAL| Grid backend                                                       AUTO
 GLOBAL| Global print level                                               MEDIUM
 GLOBAL| MPI I/O enabled                                                       T
 GLOBAL| Total number of message passing processes                            48
 GLOBAL| Number of threads for this process                                    4
 GLOBAL| This output is from process                                           0
 GLOBAL| OpenMP stack size per thread (OMP_STACKSIZE)                    default
 GLOBAL| CPU model name             Intel(R) Xeon(R) Platinum 8174 CPU @ 3.10GHz

 MEMORY| system memory details [Kb]
 MEMORY|                        rank 0           min           max       average
 MEMORY| MemTotal             98436664      98436660      98436684      98436668
 MEMORY| MemFree              84139684      83732624      84139684      83934139
 MEMORY| Buffers                     0             0             0             0
 MEMORY| Cached                2399188       2382832       2415340       2396927
 MEMORY| Slab                  1196480       1196480       1229476       1218423
 MEMORY| SReclaimable           265200        265200        275584        271102
 MEMORY| MemLikelyFree        86804072      86387696      86804072      86602168


 *** Fundamental physical constants (SI units) ***

 *** Literature: B. J. Mohr and B. N. Taylor,
 ***             CODATA recommended values of the fundamental physical
 ***             constants: 2006, Web Version 5.1
 ***             http://physics.nist.gov/constants

 Speed of light in vacuum [m/s]                             2.99792458000000E+08
 Magnetic constant or permeability of vacuum [N/A**2]       1.25663706143592E-06
 Electric constant or permittivity of vacuum [F/m]          8.85418781762039E-12
 Planck constant (h) [J*s]                                  6.62606896000000E-34
 Planck constant (h-bar) [J*s]                              1.05457162825177E-34
 Elementary charge [C]                                      1.60217648700000E-19
 Electron mass [kg]                                         9.10938215000000E-31
 Electron g factor [ ]                                     -2.00231930436220E+00
 Proton mass [kg]                                           1.67262163700000E-27
 Fine-structure constant                                    7.29735253760000E-03
 Rydberg constant [1/m]                                     1.09737315685270E+07
 Avogadro constant [1/mol]                                  6.02214179000000E+23
 Boltzmann constant [J/K]                                   1.38065040000000E-23
 Atomic mass unit [kg]                                      1.66053878200000E-27
 Bohr radius [m]                                            5.29177208590000E-11

 *** Conversion factors ***

 [u] -> [a.u.]                                              1.82288848426455E+03
 [Angstrom] -> [Bohr] = [a.u.]                              1.88972613288564E+00
 [a.u.] = [Bohr] -> [Angstrom]                              5.29177208590000E-01
 [a.u.] -> [s]                                              2.41888432650478E-17
 [a.u.] -> [fs]                                             2.41888432650478E-02
 [a.u.] -> [J]                                              4.35974393937059E-18
 [a.u.] -> [N]                                              8.23872205491840E-08
 [a.u.] -> [K]                                              3.15774647902944E+05
 [a.u.] -> [kJ/mol]                                         2.62549961709828E+03
 [a.u.] -> [kcal/mol]                                       6.27509468713739E+02
 [a.u.] -> [Pa]                                             2.94210107994716E+13
 [a.u.] -> [bar]                                            2.94210107994716E+08
 [a.u.] -> [atm]                                            2.90362800883016E+08
 [a.u.] -> [eV]                                             2.72113838565563E+01
 [a.u.] -> [Hz]                                             6.57968392072181E+15
 [a.u.] -> [1/cm] (wave numbers)                            2.19474631370540E+05
 [a.u./Bohr**2] -> [1/cm]                                   5.14048714338585E+03
 

 CELL_TOP| Volume [angstrom^3]:                                     27000.000000
 CELL_TOP| Vector a [angstrom    30.000     0.000     0.000   |a| =    30.000000
 CELL_TOP| Vector b [angstrom     0.000    30.000     0.000   |b| =    30.000000
 CELL_TOP| Vector c [angstrom     0.000     0.000    30.000   |c| =    30.000000
 CELL_TOP| Angle (b,c), alpha [degree]:                                90.000000
 CELL_TOP| Angle (a,c), beta  [degree]:                                90.000000
 CELL_TOP| Angle (a,b), gamma [degree]:                                90.000000
 CELL_TOP| Numerically orthorhombic:                                         YES
 CELL_TOP| Periodicity                                                      NONE

 GENERATE|  Preliminary Number of Bonds generated:                             0
 GENERATE|  Achieved consistency in connectivity generation.

 CELL| Volume [angstrom^3]:                                         27000.000000
 CELL| Vector a [angstrom]:      30.000     0.000     0.000   |a| =    30.000000
 CELL| Vector b [angstrom]:       0.000    30.000     0.000   |b| =    30.000000
 CELL| Vector c [angstrom]:       0.000     0.000    30.000   |c| =    30.000000
 CELL| Angle (b,c), alpha [degree]:                                    90.000000
 CELL| Angle (a,c), beta  [degree]:                                    90.000000
 CELL| Angle (a,b), gamma [degree]:                                    90.000000
 CELL| Numerically orthorhombic:                                             YES
 CELL| Periodicity                                                          NONE

 CELL_REF| Volume [angstrom^3]:                                     27000.000000
 CELL_REF| Vector a [angstrom    30.000     0.000     0.000   |a| =    30.000000
 CELL_REF| Vector b [angstrom     0.000    30.000     0.000   |b| =    30.000000
 CELL_REF| Vector c [angstrom     0.000     0.000    30.000   |c| =    30.000000
 CELL_REF| Angle (b,c), alpha [degree]:                                90.000000
 CELL_REF| Angle (a,c), beta  [degree]:                                90.000000
 CELL_REF| Angle (a,b), gamma [degree]:                                90.000000
 CELL_REF| Numerically orthorhombic:                                         YES
 CELL_REF| Periodicity                                                      NONE

 *******************************************************************************
 *******************************************************************************
 **                                                                           **
 **     #####                         ##              ##                      **
 **    ##   ##            ##          ##              ##                      **
 **   ##     ##                       ##            ######                    **
 **   ##     ##  ##   ##  ##   #####  ##  ##   ####   ##    #####    #####    **
 **   ##     ##  ##   ##  ##  ##      ## ##   ##      ##   ##   ##  ##   ##   **
 **   ##  ## ##  ##   ##  ##  ##      ####     ###    ##   ######   ######    **
 **    ##  ###   ##   ##  ##  ##      ## ##      ##   ##   ##       ##        **
 **     #######   #####   ##   #####  ##  ##  ####    ##    #####   ##        **
 **           ##                                                    ##        **
 **                                                                           **
 **                                                ... make the atoms dance   **
 **                                                                           **
 **            Copyright (C) by CP2K developers group (2000-2025)             **
 **                      J. Chem. Phys. 152, 194103 (2020)                    **
 **                                                                           **
 *******************************************************************************

 DFT| Spin restricted Kohn-Sham (RKS) calculation                            RKS
 DFT| Multiplicity                                                             1
 DFT| Number of spin states                                                    1
 DFT| Charge                                                                   0
 DFT| Self-interaction correction (SIC)                                       NO
 DFT| Cutoffs: density                                              1.000000E-10
 DFT|          gradient                                             1.000000E-10
 DFT|          tau                                                  1.000000E-10
 DFT|          cutoff_smoothing_range                               0.000000E+00
 DFT| XC density smoothing                                                  NONE
 DFT| XC derivatives                                                          PW

 FUNCTIONAL| PBE:
 FUNCTIONAL| J.P.Perdew, K.Burke, M.Ernzerhof, Phys. Rev. Letter, vol. 77, n 18,
 FUNCTIONAL|  pp. 3865-3868, (1996)sx=0.750sc=1.000{spin unpolarized}           


 QS| Method:                                                                GAPW
 QS| Density plane wave grid type                        NON-SPHERICAL FULLSPACE
 QS| Number of grid levels:                                                    4
 QS| Density cutoff [a.u.]:                                                250.0
 QS| Multi grid cutoff [a.u.]: 1) grid level                               250.0
 QS|                           2) grid level                                83.3
 QS|                           3) grid level                                27.8
 QS|                           4) grid level                                 9.3
 QS| Grid level progression factor:                                          3.0
 QS| Relative density cutoff [a.u.]:                                        50.0
 QS| Interaction thresholds: eps_pgf_orb:                                1.0E-12
 QS|                         eps_filter_matrix:                          0.0E+00
 QS|                         eps_core_charge:                            1.0E-14
 QS|                         eps_rho_gspace:                             1.0E-12
 QS|                         eps_rho_rspace:                             1.0E-12
 QS|                         eps_gvg_rspace:                             1.0E-06
 QS|                         eps_ppl:                                    1.0E-02
 QS|                         eps_ppnl:                                   1.0E-08
 QS| GAPW|      One center basis from orbital basis primitives
 QS| GAPW|                   eps_fit:                                    1.0E-04
 QS| GAPW|                   eps_iso:                                    1.0E-12
 QS| GAPW|                   eps_svd:                                    1.0E-08
 QS| GAPW|                   eps_cpc:                                    1.0E-12
 QS| GAPW|   atom-r-grid: quadrature:                                     GC_LOG
 QS| GAPW|      atom-s-grid:  max l :                                          6
 QS| GAPW|      max_l_rho0 :                                                   2


 ATOMIC KIND INFORMATION

  1. Atomic kind: li                                    Number of atoms:       2

     Orbital Basis Set                                        aug-TZVP-MOLOPT-ae

       Number of orbital shell sets:                                           2
       Number of orbital shells:                                              13
       Number of primitive Cartesian functions:                               11
       Number of Cartesian basis functions:                                   40
       Number of spherical basis functions:                                   35
       Norm type:                                                              2

       Normalised Cartesian orbitals:

                        Set   Shell   Orbital            Exponent    Coefficient

                          1       1    1s                0.024646      -0.078105
                                                         0.071007       0.213026
                                                         0.237636      -0.232469
                                                         0.680928       0.544799
                                                         1.933558      -1.060981

                          1       2    2s                0.024646       0.006228
                                                         0.071007       0.022458
                                                         0.237636       0.022101
                                                         0.680928       0.156290
                                                         1.933558       0.593777

                          1       3    3s                0.024646       0.023237
                                                         0.071007       0.033037
                                                         0.237636       0.065312
                                                         0.680928       0.047064
                                                         1.933558      -0.462606

                          1       4    4s                0.024646       0.005162
                                                         0.071007       0.074011
                                                         0.237636      -0.047989
                                                         0.680928      -0.668780
                                                         1.933558       0.448387

                          1       5    5s                0.024646       0.052262
                                                         0.071007      -0.012156
                                                         0.237636      -0.070069
                                                         0.680928       0.011411
                                                         1.933558       0.006013

                          1       6    2px               0.024646       0.000822
                                                         0.071007      -0.000886
                                                         0.237636       0.077898
                                                         0.680928      -1.218050
                                                         1.933558       5.053657
                          1       6    2py               0.024646       0.000822
                                                         0.071007      -0.000886
                                                         0.237636       0.077898
                                                         0.680928      -1.218050
                                                         1.933558       5.053657
                          1       6    2pz               0.024646       0.000822
                                                         0.071007      -0.000886
                                                         0.237636       0.077898
                                                         0.680928      -1.218050
                                                         1.933558       5.053657

                          1       7    3px               0.024646      -0.010239
                                                         0.071007      -0.021942
                                                         0.237636       0.080413
                                                         0.680928       0.093238
                                                         1.933558       0.147169
                          1       7    3py               0.024646      -0.010239
                                                         0.071007      -0.021942
                                                         0.237636       0.080413
                                                         0.680928       0.093238
                                                         1.933558       0.147169
                          1       7    3pz               0.024646      -0.010239
                                                         0.071007      -0.021942
                                                         0.237636       0.080413
                                                         0.680928       0.093238
                                                         1.933558       0.147169

                          1       8    4px               0.024646       0.000237
                                                         0.071007       0.023413
                                                         0.237636       0.129113
                                                         0.680928       0.121719
                                                         1.933558       0.036550
                          1       8    4py               0.024646       0.000237
                                                         0.071007       0.023413
                                                         0.237636       0.129113
                                                         0.680928       0.121719
                                                         1.933558       0.036550
                          1       8    4pz               0.024646       0.000237
                                                         0.071007       0.023413
                                                         0.237636       0.129113
                                                         0.680928       0.121719
                                                         1.933558       0.036550

                          1       9    5px               0.024646      -0.012357
                                                         0.071007       0.058147
                                                         0.237636       0.060042
                                                         0.680928       0.050984
                                                         1.933558       0.171511
                          1       9    5py               0.024646      -0.012357
                                                         0.071007       0.058147
                                                         0.237636       0.060042
                                                         0.680928       0.050984
                                                         1.933558       0.171511
                          1       9    5pz               0.024646      -0.012357
                                                         0.071007       0.058147
                                                         0.237636       0.060042
                                                         0.680928       0.050984
                                                         1.933558       0.171511

                          1      10    3dx2              0.024646      -0.000157
                                                         0.071007       0.006388
                                                         0.237636       0.091398
                                                         0.680928       0.100225
                                                         1.933558      -0.256537
                          1      10    3dxy              0.024646      -0.000271
                                                         0.071007       0.011064
                                                         0.237636       0.158306
                                                         0.680928       0.173596
                                                         1.933558      -0.444335
                          1      10    3dxz              0.024646      -0.000271
                                                         0.071007       0.011064
                                                         0.237636       0.158306
                                                         0.680928       0.173596
                                                         1.933558      -0.444335
                          1      10    3dy2              0.024646      -0.000157
                                                         0.071007       0.006388
                                                         0.237636       0.091398
                                                         0.680928       0.100225
                                                         1.933558      -0.256537
                          1      10    3dyz              0.024646      -0.000271
                                                         0.071007       0.011064
                                                         0.237636       0.158306
                                                         0.680928       0.173596
                                                         1.933558      -0.444335
                          1      10    3dz2              0.024646      -0.000157
                                                         0.071007       0.006388
                                                         0.237636       0.091398
                                                         0.680928       0.100225
                                                         1.933558      -0.256537

                          1      11    4dx2              0.024646      -0.000002
                                                         0.071007       0.016088
                                                         0.237636       0.000035
                                                         0.680928      -0.002278
                                                         1.933558      -0.014809
                          1      11    4dxy              0.024646      -0.000003
                                                         0.071007       0.027866
                                                         0.237636       0.000061
                                                         0.680928      -0.003946
                                                         1.933558      -0.025650
                          1      11    4dxz              0.024646      -0.000003
                                                         0.071007       0.027866
                                                         0.237636       0.000061
                                                         0.680928      -0.003946
                                                         1.933558      -0.025650
                          1      11    4dy2              0.024646      -0.000002
                                                         0.071007       0.016088
                                                         0.237636       0.000035
                                                         0.680928      -0.002278
                                                         1.933558      -0.014809
                          1      11    4dyz              0.024646      -0.000003
                                                         0.071007       0.027866
                                                         0.237636       0.000061
                                                         0.680928      -0.003946
                                                         1.933558      -0.025650
                          1      11    4dz2              0.024646      -0.000002
                                                         0.071007       0.016088
                                                         0.237636       0.000035
                                                         0.680928      -0.002278
                                                         1.933558      -0.014809

                          1      12    4fx3              0.024646      -0.000304
                                                         0.071007       0.004674
                                                         0.237636      -0.004905
                                                         0.680928      -0.023032
                                                         1.933558       0.088408
                          1      12    4fx2y             0.024646      -0.000679
                                                         0.071007       0.010451
                                                         0.237636      -0.010968
                                                         0.680928      -0.051501
                                                         1.933558       0.197686
                          1      12    4fx2z             0.024646      -0.000679
                                                         0.071007       0.010451
                                                         0.237636      -0.010968
                                                         0.680928      -0.051501
                                                         1.933558       0.197686
                          1      12    4fxy2             0.024646      -0.000679
                                                         0.071007       0.010451
                                                         0.237636      -0.010968
                                                         0.680928      -0.051501
                                                         1.933558       0.197686
                          1      12    4fxyz             0.024646      -0.001176
                                                         0.071007       0.018102
                                                         0.237636      -0.018996
                                                         0.680928      -0.089202
                                                         1.933558       0.342401
                          1      12    4fxz2             0.024646      -0.000679
                                                         0.071007       0.010451
                                                         0.237636      -0.010968
                                                         0.680928      -0.051501
                                                         1.933558       0.197686
                          1      12    4fy3              0.024646      -0.000304
                                                         0.071007       0.004674
                                                         0.237636      -0.004905
                                                         0.680928      -0.023032
                                                         1.933558       0.088408
                          1      12    4fy2z             0.024646      -0.000679
                                                         0.071007       0.010451
                                                         0.237636      -0.010968
                                                         0.680928      -0.051501
                                                         1.933558       0.197686
                          1      12    4fyz2             0.024646      -0.000679
                                                         0.071007       0.010451
                                                         0.237636      -0.010968
                                                         0.680928      -0.051501
                                                         1.933558       0.197686
                          1      12    4fz3              0.024646      -0.000304
                                                         0.071007       0.004674
                                                         0.237636      -0.004905
                                                         0.680928      -0.023032
                                                         1.933558       0.088408

                          2       1    1s             6269.059024       0.195526
                                                       940.419254       0.355467
                                                       214.089215       0.613400
                                                        60.725519       1.001660
                                                        18.086742       1.629632
                                                         5.657040       1.936268

     RI Auxiliary Basis Set             RI_aug-TZVP-MOLOPT-ae_N_RI_015_s_p_d_f_g

       Number of orbital shell sets:                                           7
       Number of orbital shells:                                               7
       Number of primitive Cartesian functions:                                7
       Number of Cartesian basis functions:                                   16
       Number of spherical basis functions:                                   15
       Norm type:                                                              2

       Normalised Cartesian orbitals:

                        Set   Shell   Orbital            Exponent    Coefficient

                          1       1    1s                0.423592       0.374215

                          2       1    7dx2              0.914374       1.407265
                          2       1    7dxy              0.914374       2.437455
                          2       1    7dxz              0.914374       2.437455
                          2       1    7dy2              0.914374       1.407265
                          2       1    7dyz              0.914374       2.437455
                          2       1    7dz2              0.914374       1.407265

                          3       1    5px               1.095653       1.597833
                          3       1    5py               1.095653       1.597833
                          3       1    5pz               1.095653       1.597833

                          4       1    2s                1.492684       0.962467

                          5       1    6px               4.602940       9.610240
                          5       1    6py               4.602940       9.610240
                          5       1    6pz               4.602940       9.610240

                          6       1    3s                5.260022       2.475431

                          7       1    4s               18.535644       6.366721

       Atomic covalent radius [Angstrom]:                                  1.230

       Atomic van der Waals radius [Angstrom]:                             1.820

     The atoms of this atomic kind are PAW atoms (GAPW):
       Hard Gaussian function radius:                                      1.512
       Rho0 radius:                                                        1.512
       Maximum GTO radius used for PAW projector construction:            24.566

     GAPW Soft Basis Set                                 aug-TZVP-MOLOPT-ae_soft

       Number of orbital shell sets:                                           2
       Number of orbital shells:                                              13
       Number of primitive Cartesian functions:                                5
       Number of Cartesian basis functions:                                   40
       Number of spherical basis functions:                                   35
       Norm type:                                                              2

       Normalised Cartesian orbitals:

                        Set   Shell   Orbital            Exponent    Coefficient

                          1       1    1s                0.024646      -0.078105
                                                         0.071007       0.213026
                                                         0.237636      -0.232469
                                                         0.680928       0.544799
                                                         1.933558      -1.060981

                          1       2    2s                0.024646       0.006228
                                                         0.071007       0.022458
                                                         0.237636       0.022101
                                                         0.680928       0.156290
                                                         1.933558       0.593777

                          1       3    3s                0.024646       0.023237
                                                         0.071007       0.033037
                                                         0.237636       0.065312
                                                         0.680928       0.047064
                                                         1.933558      -0.462606

                          1       4    4s                0.024646       0.005162
                                                         0.071007       0.074011
                                                         0.237636      -0.047989
                                                         0.680928      -0.668780
                                                         1.933558       0.448387

                          1       5    5s                0.024646       0.052262
                                                         0.071007      -0.012156
                                                         0.237636      -0.070069
                                                         0.680928       0.011411
                                                         1.933558       0.006013

                          1       6    2px               0.024646       0.000822
                                                         0.071007      -0.000886
                                                         0.237636       0.077898
                                                         0.680928      -1.218050
                                                         1.933558       5.053657
                          1       6    2py               0.024646       0.000822
                                                         0.071007      -0.000886
                                                         0.237636       0.077898
                                                         0.680928      -1.218050
                                                         1.933558       5.053657
                          1       6    2pz               0.024646       0.000822
                                                         0.071007      -0.000886
                                                         0.237636       0.077898
                                                         0.680928      -1.218050
                                                         1.933558       5.053657

                          1       7    3px               0.024646      -0.010239
                                                         0.071007      -0.021942
                                                         0.237636       0.080413
                                                         0.680928       0.093238
                                                         1.933558       0.147169
                          1       7    3py               0.024646      -0.010239
                                                         0.071007      -0.021942
                                                         0.237636       0.080413
                                                         0.680928       0.093238
                                                         1.933558       0.147169
                          1       7    3pz               0.024646      -0.010239
                                                         0.071007      -0.021942
                                                         0.237636       0.080413
                                                         0.680928       0.093238
                                                         1.933558       0.147169

                          1       8    4px               0.024646       0.000237
                                                         0.071007       0.023413
                                                         0.237636       0.129113
                                                         0.680928       0.121719
                                                         1.933558       0.036550
                          1       8    4py               0.024646       0.000237
                                                         0.071007       0.023413
                                                         0.237636       0.129113
                                                         0.680928       0.121719
                                                         1.933558       0.036550
                          1       8    4pz               0.024646       0.000237
                                                         0.071007       0.023413
                                                         0.237636       0.129113
                                                         0.680928       0.121719
                                                         1.933558       0.036550

                          1       9    5px               0.024646      -0.012357
                                                         0.071007       0.058147
                                                         0.237636       0.060042
                                                         0.680928       0.050984
                                                         1.933558       0.171511
                          1       9    5py               0.024646      -0.012357
                                                         0.071007       0.058147
                                                         0.237636       0.060042
                                                         0.680928       0.050984
                                                         1.933558       0.171511
                          1       9    5pz               0.024646      -0.012357
                                                         0.071007       0.058147
                                                         0.237636       0.060042
                                                         0.680928       0.050984
                                                         1.933558       0.171511

                          1      10    3dx2              0.024646      -0.000157
                                                         0.071007       0.006388
                                                         0.237636       0.091398
                                                         0.680928       0.100225
                                                         1.933558      -0.256537
                          1      10    3dxy              0.024646      -0.000271
                                                         0.071007       0.011064
                                                         0.237636       0.158306
                                                         0.680928       0.173596
                                                         1.933558      -0.444335
                          1      10    3dxz              0.024646      -0.000271
                                                         0.071007       0.011064
                                                         0.237636       0.158306
                                                         0.680928       0.173596
                                                         1.933558      -0.444335
                          1      10    3dy2              0.024646      -0.000157
                                                         0.071007       0.006388
                                                         0.237636       0.091398
                                                         0.680928       0.100225
                                                         1.933558      -0.256537
                          1      10    3dyz              0.024646      -0.000271
                                                         0.071007       0.011064
                                                         0.237636       0.158306
                                                         0.680928       0.173596
                                                         1.933558      -0.444335
                          1      10    3dz2              0.024646      -0.000157
                                                         0.071007       0.006388
                                                         0.237636       0.091398
                                                         0.680928       0.100225
                                                         1.933558      -0.256537

                          1      11    4dx2              0.024646      -0.000002
                                                         0.071007       0.016088
                                                         0.237636       0.000035
                                                         0.680928      -0.002278
                                                         1.933558      -0.014809
                          1      11    4dxy              0.024646      -0.000003
                                                         0.071007       0.027866
                                                         0.237636       0.000061
                                                         0.680928      -0.003946
                                                         1.933558      -0.025650
                          1      11    4dxz              0.024646      -0.000003
                                                         0.071007       0.027866
                                                         0.237636       0.000061
                                                         0.680928      -0.003946
                                                         1.933558      -0.025650
                          1      11    4dy2              0.024646      -0.000002
                                                         0.071007       0.016088
                                                         0.237636       0.000035
                                                         0.680928      -0.002278
                                                         1.933558      -0.014809
                          1      11    4dyz              0.024646      -0.000003
                                                         0.071007       0.027866
                                                         0.237636       0.000061
                                                         0.680928      -0.003946
                                                         1.933558      -0.025650
                          1      11    4dz2              0.024646      -0.000002
                                                         0.071007       0.016088
                                                         0.237636       0.000035
                                                         0.680928      -0.002278
                                                         1.933558      -0.014809

                          1      12    4fx3              0.024646      -0.000304
                                                         0.071007       0.004674
                                                         0.237636      -0.004905
                                                         0.680928      -0.023032
                                                         1.933558       0.088408
                          1      12    4fx2y             0.024646      -0.000679
                                                         0.071007       0.010451
                                                         0.237636      -0.010968
                                                         0.680928      -0.051501
                                                         1.933558       0.197686
                          1      12    4fx2z             0.024646      -0.000679
                                                         0.071007       0.010451
                                                         0.237636      -0.010968
                                                         0.680928      -0.051501
                                                         1.933558       0.197686
                          1      12    4fxy2             0.024646      -0.000679
                                                         0.071007       0.010451
                                                         0.237636      -0.010968
                                                         0.680928      -0.051501
                                                         1.933558       0.197686
                          1      12    4fxyz             0.024646      -0.001176
                                                         0.071007       0.018102
                                                         0.237636      -0.018996
                                                         0.680928      -0.089202
                                                         1.933558       0.342401
                          1      12    4fxz2             0.024646      -0.000679
                                                         0.071007       0.010451
                                                         0.237636      -0.010968
                                                         0.680928      -0.051501
                                                         1.933558       0.197686
                          1      12    4fy3              0.024646      -0.000304
                                                         0.071007       0.004674
                                                         0.237636      -0.004905
                                                         0.680928      -0.023032
                                                         1.933558       0.088408
                          1      12    4fy2z             0.024646      -0.000679
                                                         0.071007       0.010451
                                                         0.237636      -0.010968
                                                         0.680928      -0.051501
                                                         1.933558       0.197686
                          1      12    4fyz2             0.024646      -0.000679
                                                         0.071007       0.010451
                                                         0.237636      -0.010968
                                                         0.680928      -0.051501
                                                         1.933558       0.197686
                          1      12    4fz3              0.024646      -0.000304
                                                         0.071007       0.004674
                                                         0.237636      -0.004905
                                                         0.680928      -0.023032
                                                         1.933558       0.088408

                          2       1    1s         

     AE Potential information for                                            ALL

       Description:                                       All-electron potential
                                          Krack, Parrinello, PCCP 2, 2105 (2000)

       Gaussian exponent of the core charge distribution:               3.125000
       Electronic configuration (s p d ...):                           3   0   0


 MOLECULE KIND INFORMATION


 All atoms are their own molecule, skipping detailed information


 TOTAL NUMBERS AND MAXIMUM NUMBERS

  Total number of            - Atomic kinds:                                   1
                             - Atoms:                                          2
                             - Shell sets:                                     4
                             - Shells:                                        26
                             - Primitive Cartesian functions:                 22
                             - Cartesian basis functions:                     80
                             - Spherical basis functions:                     70

  Maximum angular momentum of the orbital basis functions:                     3


 MODULE QUICKSTEP: ATOMIC COORDINATES IN ANGSTROM

   Atom Kind Element         X             Y             Z       Z(eff)     Mass
      1    1 li    3     15.000000     15.000000     16.394718   3.0000   6.9410
      2    1 li    3     15.000000     15.000000     13.605282   3.0000   6.9410



 SCF PARAMETERS         Density guess:                                    ATOMIC
                        --------------------------------------------------------
                        max_scf:                                             500
                        max_scf_history:                                       0
                        max_diis:                                              4
                        --------------------------------------------------------
                        eps_scf:                                        1.00E-06
                        eps_scf_history:                                0.00E+00
                        eps_diis:                                       1.00E-01
                        eps_eigval:                                     1.00E-05
                        --------------------------------------------------------
                        level_shift [a.u.]:                             0.000000
                        added MOs                                        67    0
                        --------------------------------------------------------
                        Mixing method:                            BROYDEN_MIXING
                                                charge density mixing in g-space
                        --------------------------------------------------------
                        Smear method:                                FERMI_DIRAC
                        Electronic temperature [K]:                        300.0
                        Electronic temperature [a.u.]:                  9.50E-04
                        Accuracy threshold:                             1.00E-10
                        --------------------------------------------------------
                        No outer SCF

 PW_GRID| Information for grid number                                          1
 PW_GRID| Grid distributed over                                    48 processors
 PW_GRID| Real space group dimensions                                    48    1
 PW_GRID| the grid is blocked:                                                NO
 PW_GRID| Cutoff [a.u.]                                                    250.0
 PW_GRID| spherical cutoff:                                                   NO
 PW_GRID|   Bounds   1           -202     202                Points:         405
 PW_GRID|   Bounds   2           -202     202                Points:         405
 PW_GRID|   Bounds   3           -202     202                Points:         405
 PW_GRID| Volume element (a.u.^3)  0.2743E-02     Volume (a.u.^3)    182205.0337
 PW_GRID| Grid span                                                    FULLSPACE
 PW_GRID|   Distribution                         Average         Max         Min
 PW_GRID|   G-Vectors                          1383960.9     1384290     1383885
 PW_GRID|   G-Rays                                3417.2        3418        3417
 PW_GRID|   Real Space Points                  1383960.9     1476225     1312200

 PW_GRID| Information for grid number                                          2
 PW_GRID| Number of the reference grid                                         1
 PW_GRID| Grid distributed over                                    48 processors
 PW_GRID| Real space group dimensions                                    48    1
 PW_GRID| the grid is blocked:                                                NO
 PW_GRID| Cutoff [a.u.]                                                     83.3
 PW_GRID| spherical cutoff:                                                   NO
 PW_GRID|   Bounds   1           -120     119                Points:         240
 PW_GRID|   Bounds   2           -120     119                Points:         240
 PW_GRID|   Bounds   3           -120     119                Points:         240
 PW_GRID| Volume element (a.u.^3)  0.1318E-01     Volume (a.u.^3)    182205.0337
 PW_GRID| Grid span                                                    FULLSPACE
 PW_GRID|   Distribution                         Average         Max         Min
 PW_GRID|   G-Vectors                           288000.0      288720      287520
 PW_GRID|   G-Rays                                1200.0        1203        1198
 PW_GRID|   Real Space Points                   288000.0      288000      288000

 PW_GRID| Information for grid number                                          3
 PW_GRID| Number of the reference grid                                         1
 PW_GRID| Grid distributed over                                    48 processors
 PW_GRID| Real space group dimensions                                    48    1
 PW_GRID| the grid is blocked:                                                NO
 PW_GRID| Cutoff [a.u.]                                                     27.8
 PW_GRID| spherical cutoff:                                                   NO
 PW_GRID|   Bounds   1            -67      67                Points:         135
 PW_GRID|   Bounds   2            -67      67                Points:         135
 PW_GRID|   Bounds   3            -67      67                Points:         135
 PW_GRID| Volume element (a.u.^3)  0.7406E-01     Volume (a.u.^3)    182205.0337
 PW_GRID| Grid span                                                    FULLSPACE
 PW_GRID|   Distribution                         Average         Max         Min
 PW_GRID|   G-Vectors                            51257.8       51570       51030
 PW_GRID|   G-Rays                                 379.7         382         378
 PW_GRID|   Real Space Points                    51257.8       54675       36450

 PW_GRID| Information for grid number                                          4
 PW_GRID| Number of the reference grid                                         1
 PW_GRID| Grid distributed over                                    48 processors
 PW_GRID| Real space group dimensions                                    48    1
 PW_GRID| the grid is blocked:                                                NO
 PW_GRID| Cutoff [a.u.]                                                      9.3
 PW_GRID| spherical cutoff:                                                   NO
 PW_GRID|   Bounds   1            -40      39                Points:          80
 PW_GRID|   Bounds   2            -40      39                Points:          80
 PW_GRID|   Bounds   3            -40      39                Points:          80
 PW_GRID| Volume element (a.u.^3)  0.3559         Volume (a.u.^3)    182205.0337
 PW_GRID| Grid span                                                    FULLSPACE
 PW_GRID|   Distribution                         Average         Max         Min
 PW_GRID|   G-Vectors                            10666.7       10800       10560
 PW_GRID|   G-Rays                                 133.3         135         132
 PW_GRID|   Real Space Points                    10666.7       12800        6400

 POISSON| Solver                                                         WAVELET
 POISSON| Wavelet| Scaling function                                           40
 POISSON| Periodicity                                                       NONE

 RS_GRID| Information for grid number                                          1
 RS_GRID|   Bounds   1           -202     202                Points:         405
 RS_GRID|   Bounds   2           -202     202                Points:         405
 RS_GRID|   Bounds   3           -202     202                Points:         405
 RS_GRID| Real space distribution over                                  3 groups
 RS_GRID| Real space distribution along direction                              1
 RS_GRID| Border size                                                         34
 RS_GRID| Real space distribution over                                  4 groups
 RS_GRID| Real space distribution along direction                              2
 RS_GRID| Border size                                                         34
 RS_GRID| Real space distribution over                                  4 groups
 RS_GRID| Real space distribution along direction                              3
 RS_GRID| Border size                                                         34
 RS_GRID|   Distribution                         Average         Max         Min
 RS_GRID|   Planes                                 203.0         203         203
 RS_GRID|   Distribution                         Average         Max         Min
 RS_GRID|   Planes                                 169.2         170         169
 RS_GRID|   Distribution                         Average         Max         Min
 RS_GRID|   Planes                                 169.2         170         169

 RS_GRID| Information for grid number                                          2
 RS_GRID|   Bounds   1           -120     119                Points:         240
 RS_GRID|   Bounds   2           -120     119                Points:         240
 RS_GRID|   Bounds   3           -120     119                Points:         240
 RS_GRID| Real space distribution over                                  3 groups
 RS_GRID| Real space distribution along direction                              1
 RS_GRID| Border size                                                         35
 RS_GRID| Real space distribution over                                  4 groups
 RS_GRID| Real space distribution along direction                              2
 RS_GRID| Border size                                                         35
 RS_GRID| Real space distribution over                                  4 groups
 RS_GRID| Real space distribution along direction                              3
 RS_GRID| Border size                                                         35
 RS_GRID|   Distribution                         Average         Max         Min
 RS_GRID|   Planes                                 150.0         150         150
 RS_GRID|   Distribution                         Average         Max         Min
 RS_GRID|   Planes                                 130.0         130         130
 RS_GRID|   Distribution                         Average         Max         Min
 RS_GRID|   Planes                                 130.0         130         130

 RS_GRID| Information for grid number                                          3
 RS_GRID|   Bounds   1            -67      67                Points:         135
 RS_GRID|   Bounds   2            -67      67                Points:         135
 RS_GRID|   Bounds   3            -67      67                Points:         135
 RS_GRID| Real space fully replicated
 RS_GRID| Group size                                                           1

 RS_GRID| Information for grid number                                          4
 RS_GRID|   Bounds   1            -40      39                Points:          80
 RS_GRID|   Bounds   2            -40      39                Points:          80
 RS_GRID|   Bounds   3            -40      39                Points:          80
 RS_GRID| Real space fully replicated
 RS_GRID| Group size                                                           1

  HFX_INFO| Replica ID:                                                        1
  HFX_INFO| FRACTION:                                               0.2500000000
  HFX_INFO| Interaction Potential:                                       COULOMB
  HFX_INFO| EPS_SCHWARZ:                                                 1.0E-10
  HFX_INFO| EPS_SCHWARZ_FORCES                                           1.0E-08
  HFX_INFO| EPS_STORAGE_SCALING:                                         1.0E+00
  HFX_INFO| NBINS:                                                            64
  HFX_INFO| BLOCK_SIZE:                                                        1
  HFX_INFO| Number of periodic shells considered:                           NONE
  HFX_INFO| Number of periodic cells considered:                            NONE

 
 RI-RPA| using GPW style
 

 OVERLAP MATRIX CONDITION NUMBER
 1-Norm Condition Number (Estimate)
   CN : |A|*|A^-1|:  6.287E+000 *  2.445E+003   = 1.537E+004  Log(1-CN):  4.1868
 1-Norm and 2-Norm Condition Numbers using Diagonalization
   CN : |A|*|A^-1|:  6.287E+000 *  2.445E+003   = 1.537E+004  Log(1-CN):  4.1868
   CN : max/min ev:  4.088E+000 /  5.530E-004   = 7.392E+003  Log(2-CN):  3.8688

 Number of electrons:                                                          6
 Number of occupied orbitals:                                                  3
 Number of molecular orbitals:                                                70

 Number of orbital functions:                                                 70
 Number of independent orbital functions:                                     70

 Extrapolation method: initial_guess

 Atomic guess: The first density matrix is obtained in terms of atomic orbitals
               and electronic configurations assigned to each atomic kind

 Guess for atomic kind: li

 Electronic structure
    Total number of core electrons                                          0.00
    Total number of valence electrons                                       3.00
    Total number of electrons                                               3.00
    Multiplicity                                                   not specified
    S      2.00  1.00


 *******************************************************************************
                  Iteration          Convergence                     Energy [au]
 *******************************************************************************
                          1        0.727130E-01                  -7.333563743104
                          2        0.181838E-01                  -7.334340165532
                          3        0.930532E-04                  -7.334388740739
                          4        0.345447E-04                  -7.334388771351
                          5        0.187017E-05                  -7.334388771863
                          6        0.106802E-05                  -7.334388771865
                          7        0.158779E-07                  -7.334388771867

 Energy components [Hartree]           Total Energy ::           -7.334388771867
                                        Band Energy ::           -3.862104354834
                                     Kinetic Energy ::            7.236540450148
                                   Potential Energy ::          -14.570929222015
                                      Virial (-V/T) ::            2.013521422618
                                        Core Energy ::           -9.673419580468
                                          XC Energy ::           -1.651956385151
                                     Coulomb Energy ::            3.990987193753

 Orbital energies  State     L     Occupation   Energy[a.u.]          Energy[eV]

                       1     0          2.000      -1.878224          -51.109075
                       2     0          1.000      -0.105656           -2.875054


 Total Electron Density at R=0:                                        13.265052
 Re-scaling the density matrix to get the right number of electrons
                  # Electrons              Trace(P)               Scaling factor
                            6                 6.000                        1.000


 SCF WAVEFUNCTION OPTIMIZATION

  Step     Update method      Time    Convergence         Total energy    Change
  ------------------------------------------------------------------------------

  HFX_MEM_INFO| Est. max. program size before HFX [MiB]:                    1313
  HFX_MEM_INFO| Number of cart. primitive ERI's calculated:            745955968
  HFX_MEM_INFO| Number of sph. ERI's calculated:                         8998851
  HFX_MEM_INFO| Number of sph. ERI's stored in-core:                     8998851
  HFX_MEM_INFO| Number of sph. ERI's stored on disk:                           0
  HFX_MEM_INFO| Number of sph. ERI's calculated on the fly:                    0
  HFX_MEM_INFO| Total memory consumption ERI's RAM [MiB]:                     38
  HFX_MEM_INFO| Whereof max-vals [MiB]:                                        2
  HFX_MEM_INFO| Total compression factor ERI's RAM:                         1.83
  HFX_MEM_INFO| Total memory consumption ERI's disk [MiB]:                     0
  HFX_MEM_INFO| Total compression factor ERI's disk:                        0.00
  HFX_MEM_INFO| Size of density/Fock matrix [MiB]:                             0
  HFX_MEM_INFO| Size of buffers [MiB]:                                        40
  HFX_MEM_INFO| Est. max. program size after HFX  [MiB]:                    1882

     1 NoMix/Diag. 0.10E+00   20.1     0.21904683       -14.9300150715 -1.49E+01
     2 Broy./Diag. 0.10E+00    2.6     0.02578042       -14.9527847282 -2.28E-02
     3 Broy./Diag. 0.10E+00    2.7     0.00894285       -14.9302012665  2.26E-02
     4 Broy./Diag. 0.10E+00    2.7     0.01390488       -14.9112205324  1.90E-02
     5 Broy./Diag. 0.10E+00    2.7     0.00954488       -14.9081946523  3.03E-03
     6 Broy./Diag. 0.10E+00    2.8     0.00321395       -14.9157045056 -7.51E-03
     7 Broy./Diag. 0.10E+00    2.8     0.00671914       -14.9266397626 -1.09E-02
     8 Broy./Diag. 0.10E+00    2.8     0.01059205       -14.9406740754 -1.40E-02
     9 Broy./Diag. 0.10E+00    2.9     0.00634278       -14.9545962088 -1.39E-02
    10 Broy./Diag. 0.10E+00    2.9     0.00524095       -14.9657161629 -1.11E-02
    11 Broy./Diag. 0.10E+00    2.9     0.00339170       -14.9695310107 -3.81E-03
    12 Broy./Diag. 0.10E+00    3.0     0.00187707       -14.9712692818 -1.74E-03
    13 Broy./Diag. 0.10E+00    2.9     0.00529604       -14.9648492487  6.42E-03
    14 Broy./Diag. 0.10E+00    2.9     0.00224157       -14.9643705068  4.79E-04
    15 Broy./Diag. 0.10E+00    2.9     0.00128788       -14.9646599535 -2.89E-04
    16 Broy./Diag. 0.10E+00    2.9     0.00176683       -14.9649532356 -2.93E-04
    17 Broy./Diag. 0.10E+00    2.9     0.00088552       -14.9660459355 -1.09E-03
    18 Broy./Diag. 0.10E+00    2.9     0.00147453       -14.9667525224 -7.07E-04
    19 Broy./Diag. 0.10E+00    2.9     0.00041863       -14.9657843105  9.68E-04
    20 Broy./Diag. 0.10E+00    2.9     0.00168479       -14.9655018419  2.82E-04
    21 Broy./Diag. 0.10E+00    2.9     0.00086456       -14.9667513280 -1.25E-03
    22 Broy./Diag. 0.10E+00    2.9     0.00060573       -14.9658316337  9.20E-04
    23 Broy./Diag. 0.10E+00    2.9     0.00033101       -14.9652558074  5.76E-04
    24 Broy./Diag. 0.10E+00    2.9     0.00022481       -14.9654960859 -2.40E-04
    25 Broy./Diag. 0.10E+00    2.9     0.00034861       -14.9656387751 -1.43E-04
    26 Broy./Diag. 0.10E+00    2.9     0.00034302       -14.9654887720  1.50E-04
    27 Broy./Diag. 0.10E+00    2.9     0.00022790       -14.9653185651  1.70E-04
    28 Broy./Diag. 0.10E+00    3.0     0.00061190       -14.9648807167  4.38E-04
    29 Broy./Diag. 0.10E+00    2.9     0.00017753       -14.9646649087  2.16E-04
    30 Broy./Diag. 0.10E+00    2.9     0.00013211       -14.9647160748 -5.12E-05
    31 Broy./Diag. 0.10E+00    2.9     0.00013008       -14.9648966403 -1.81E-04
    32 Broy./Diag. 0.10E+00    2.9     0.00010967       -14.9648859468  1.07E-05
    33 Broy./Diag. 0.10E+00    2.9     0.00016235       -14.9647923145  9.36E-05
    34 Broy./Diag. 0.10E+00    2.9     0.00006213       -14.9647966421 -4.33E-06
    35 Broy./Diag. 0.10E+00    2.9     0.00003215       -14.9647677991  2.88E-05
    36 Broy./Diag. 0.10E+00    2.9     0.00007769       -14.9647730034 -5.20E-06
    37 Broy./Diag. 0.10E+00    3.0     0.00004321       -14.9647873978 -1.44E-05
    38 Broy./Diag. 0.10E+00    2.9     0.00001076       -14.9647538187  3.36E-05
    39 Broy./Diag. 0.10E+00    2.9     0.00001255       -14.9647418074  1.20E-05
    40 Broy./Diag. 0.10E+00    2.9     0.00003414       -14.9646938020  4.80E-05
    41 Broy./Diag. 0.10E+00    2.9     0.00005306       -14.9646274569  6.63E-05
    42 Broy./Diag. 0.10E+00    2.9     0.00000973       -14.9646317646 -4.31E-06
    43 Broy./Diag. 0.10E+00    3.0     0.00000819       -14.9646281381  3.63E-06
    44 Broy./Diag. 0.10E+00    2.9     0.00002071       -14.9645981302  3.00E-05
    45 Broy./Diag. 0.10E+00    2.9     0.00000596       -14.9645926283  5.50E-06
    46 Broy./Diag. 0.10E+00    2.9     0.00000609       -14.9645991700 -6.54E-06
    47 Broy./Diag. 0.10E+00    2.9     0.00000581       -14.9645979192  1.25E-06
    48 Broy./Diag. 0.10E+00    3.0     0.00000327       -14.9645894951  8.42E-06
    49 Broy./Diag. 0.10E+00    2.9     0.00000335       -14.9645853811  4.11E-06
    50 Broy./Diag. 0.10E+00    2.9     0.00000353       -14.9645835911  1.79E-06
    51 Broy./Diag. 0.10E+00    2.9     0.00000434       -14.9645810228  2.57E-06
    52 Broy./Diag. 0.10E+00    2.9     0.00000361       -14.9645814558 -4.33E-07
    53 Broy./Diag. 0.10E+00    2.9     0.00000177       -14.9645789243  2.53E-06
    54 Broy./Diag. 0.10E+00    2.9     0.00000358       -14.9645778844  1.04E-06
    55 Broy./Diag. 0.10E+00    2.9     0.00000099       -14.9645796260 -1.74E-06

  *** SCF run converged in    55 steps ***


  Electronic density on regular grids:         -4.2954865954        1.7045134046
  Core density on regular grids:                6.0000000000        0.0000000000
  Hard and soft densities (Lebedev):           -6.4574446491       -4.7529608865
  Total Rho_soft + Rho1_hard - Rho1_soft       -5.9999703579
  Total charge density (r-space):               0.0000296421
  Total Rho_soft + Rho0_soft (g-space):         0.0000295992

  Overlap energy of the core charge distribution:               0.00000000000000
  Self energy of the core charge distribution:                -12.69426562982452
  Core Hamiltonian energy:                                      0.44940338411751
  Hartree energy:                                               3.11951896307736
  Exchange-correlation energy:                                 -1.16177050470336
  Hartree-Fock Exchange energy:                                -0.88648320637226

  GAPW| Exc from hard and soft atomic rho1:                    -1.59317672663782
  GAPW| local Eh = 1 center integrals:                         -2.19780590569715
  Electronic entropic energy:                                  -0.00000000000000
  Fermi energy:                                                -0.08431569993457

  Total energy:                                               -14.96457962604023

 !-----------------------------------------------------------------------------!
                     Mulliken Population Analysis

 #  Atom  Element  Kind  Atomic population                           Net charge
       1     li       1          3.000000                              0.000000
       2     li       1          3.000000                             -0.000000
 # Total charge                              6.000000                 -0.000000

 !-----------------------------------------------------------------------------!

 !-----------------------------------------------------------------------------!
                           Hirshfeld Charges

  #Atom  Element  Kind  Ref Charge     Population                    Net charge
      1       li     1       3.000          2.994                         0.006
      2       li     1       3.000          2.994                         0.006

  Total Charge                                                            0.011
 !-----------------------------------------------------------------------------!


 RI-RPA section
 --------------

  Used number of processes per group:                                          1
  Maximum allowed memory usage per MPI process:                      1024.00 MiB

 *******************************************************************************
 *   ___                                                                       *
 *  /   \                                                                      *
 * [ABORT]                                                                     *
 *  \___/   Product of block size and number of RI functions should not exceed *
 *    |                          total number of processes                     *
 *  O/|                                                                        *
 * /| |                                                                        *
 *
 *******************************************************************************
 *   ___                                                                       *
 *  /   \                                                                      *
 * [ABORT]                                                                     *
 *  \___/   Product of block size and number of RI functions should not exceed *
 *    |                          total number of processes                     *
 *  O/|                                                                        *
 * /| |                                                                        *
 * / \                                                         mp2_ri_2c.F:892 *
 *******************************************************************************


 ===== Routine Calling Stack ===== 

            7 compute_2c_integrals
            6 get_2c_integrals
            5 mp2_ri_gpw_compute_in

 *******************************************************************************
 *   ___                                                                       *
 *  /   \                                                                      *
 * [ABORT]                                                                     *
 *  \___/   Product of block size and number of RI functions should not exceed *
 *    |                          total number of processes                     *
 *  O/|                                                                        *
 * /| |                                                                        *
 * / \                                                         mp2_ri_2c.F:892
 *******************************************************************************
 *   ___                                                                       *
 *  /   \                                                                      *
 * [ABORT]                                                                     *
 *  \___/   Product of block size and number of RI functions should not exceed *
 *    |                          total number of processes                     *
 *  O/|                                                                        *
 * /| |                                                                        *
 * / \                                                         mp2_ri_2c.F:892 *
 *******************************************************************************


 ===== Routine Calling Stack ===== 

            7 compute_2c_integrals
            6 get_2c_integrals
            5 mp2_ri_gpw_compute_in
            4 mp2_gpw_main
            3 mp2_main
            2 qs_energies
            1 CP2K

[...]
            4 mp2_gpw_main
            3 mp2_main
            2 qs_energies
            1 CP2K

 *******************************************************************************
 *   ___                                                                       *
 *  /   \                                                                      *
 * [ABORT]                                                                     *
 *  \___/   Product of block size and number of RI functions should not exceed *
 *    |                          total number of processes                     *
 *  O/|                                                                        *
 * /| |                                                                        *
 * / \                                                         mp2_ri_2c.F:892 *
 *******************************************************************************


 ===== Routine Calling Stack ===== 

            7 compute_2c_integrals
            6 get_2c_integrals
            5 mp2_ri_gpw_compute_in
            4 mp2_gpw_main
            3 mp2_main
            2 qs_energies
            1 CP2K

 *******************************************************************************
 *   ___                                                                       *
 *  /   \                                                                      *
 * [ABORT]                                                                     *
 *  \___/   Product of block size and number of RI functions should not exceed *
 *    |                          total number of processes                     *
 *  O/|                                                                        *
 * /| |                                                                        *
 * / \                                                         mp2_ri_2c.F:892 *
 *******************************************************************************


 ===== Routine Calling Stack ===== 

            7 compute_2c_integrals
            6 get_2c_integrals
            5 mp2_ri_gpw_compute_in
            4 mp2_gpw_main
            3 mp2_main
            2 qs_energies
            1 CP2K

 *******************************************************************************
 *   ___                                                                       *
 *  /   \                                                                      *
 * [ABORT]                                                                     *
 *  \___/   Product of block size and number of RI functions should not exceed *
 *    |                          total number of processes                     *
 *  O/|                                                                        *
 * /| |                                                                        *
 * / \                                                         mp2_ri_2c.F:892 *
 *******************************************************************************


 ===== Routine Calling Stack ===== 

            7 compute_2c_integrals
            6 get_2c_integrals
            5 mp2_ri_gpw_compute_in
            4 mp2_gpw_main
            3 mp2_main
            2 qs_energies
            1 CP2K

 *******************************************************************************
 *   ___                                                                       *
 *  /   \                                                                      *
 * [ABORT]                                                                     *
 *  \___/   Product of block size and number of RI functions should not exceed *
 *    |                          total number of processes                     *
 *  O/|                                                                        *
 * /| |                                                                        *
 * / \                                                         mp2_ri_2c.F:892 *
 *******************************************************************************


 ===== Routine Calling Stack ===== 

            7 compute_2c_integrals
            6 get_2c_integrals
            5 mp2_ri_gpw_compute_in
            4 mp2_gpw_main
            3 mp2_main
            2 qs_energies
            1 CP2K

 *******************************************************************************
 *   ___                                                                       *
 *  /   \                                                                      *
 * [ABORT]                                                                     *
 *  \___/   Product of block size and number of RI functions should not exceed *
 *    |                          total number of processes                     *
 *  O/|                                                                        *
 * /| |                                                                        *
 * / \                                                         mp2_ri_2c.F:892 *
 *******************************************************************************


 ===== Routine Calling Stack ===== 

            7 compute_2c_integrals
            6 get_2c_integrals
            5 mp2_ri_gpw_compute_in
            4 mp2_gpw_main
            3 mp2_main
            2 qs_energies
            1 CP2K

 *******************************************************************************
 *   ___                                                                       *
 *  /   \                                                                      *
 * [ABORT]                                                                     *
 *  \___/   Product of block size and number of RI functions should not exceed *
 *    |                          total number of processes                     *
 *  O/|                                                                        *
 * /| |                                                                        *
 * / \                                                         mp2_ri_2c.F:892 *
 *******************************************************************************


 ===== Routine Calling Stack ===== 

            7 compute_2c_integrals
            6 get_2c_integrals
            5 mp2_ri_gpw_compute_in
            4 mp2_gpw_main
            3 mp2_main
            2 qs_energies
            1 CP2K

 *******************************************************************************
 *   ___                                                                       *
 *  /   \                                                                      *
 * [ABORT]                                                                     *
 *  \___/   Product of block size and number of RI functions should not exceed *
 *    |                          total number of processes                     *
 *  O/|                                                                        *
 * /| |                                                                        *
 * / \                                                         mp2_ri_2c.F:892 *
 *******************************************************************************


 ===== Routine Calling Stack ===== 

            7 compute_2c_integrals
            6 get_2c_integrals
            5 mp2_ri_gpw_compute_in
            4 mp2_gpw_main
            3 mp2_main
            2 qs_energies
            1 CP2K

 *******************************************************************************
 *   ___                                                                       *
 *  /   \                                                                      *
 * [ABORT]                                                                     *
 *  \___/   Product of block size and number of RI functions should not exceed *
 *    |                          total number of processes                     *
 *  O/|                                                                        *
 * /| |                                                                        *
 * / \                                                         mp2_ri_2c.F:892 *
 *******************************************************************************


 ===== Routine Calling Stack ===== 

            7 compute_2c_integrals
            6 get_2c_integrals
            5 mp2_ri_gpw_compute_in
            4 mp2_gpw_main
            3 mp2_main
            2 qs_energies
            1 CP2K

 *******************************************************************************
 *   ___                                                                       *
 *  /   \                                                                      *
 * [ABORT]                                                                     *
 *  \___/   Product of block size and number of RI functions should not exceed *
 *    |                          total number of processes                     *
 *  O/|                                                                        *
 * /| |                                                                        *
 * / \                                                         mp2_ri_2c.F:892 *
 *******************************************************************************


 ===== Routine Calling Stack ===== 

            7 compute_2c_integrals
            6 get_2c_integrals
            5 mp2_ri_gpw_compute_in
            4 mp2_gpw_main
            3 mp2_main
            2 qs_energies
            1 CP2K

 *******************************************************************************
 *   ___                                                                       *
 *  /   \                                                                      *
 * [ABORT]                                                                     *
 *  \___/   Product of block size and number of RI functions should not exceed *
 *    |                          total number of processes                     *
 *  O/|                                                                        *
 * /| |                                                                        *
 * / \                                                         mp2_ri_2c.F:892 *
 *******************************************************************************


 ===== Routine Calling Stack ===== 

            7 compute_2c_integrals
            6 get_2c_integrals
            5 mp2_ri_gpw_compute_in
            4 mp2_gpw_main
            3 mp2_main
            2 qs_energies
            1 CP2K

 *******************************************************************************
 *   ___                                                                       *
 *  /   \                                                                      *
 * [ABORT]                                                                     *
 *  \___/   Product of block size and number of RI functions should not exceed *
 *    |                          total number of processes                     *
 *  O/|                                                                        *
 * /| |                                                                        *
 * / \                                                         mp2_ri_2c.F:892 *
 *******************************************************************************


 ===== Routine Calling Stack ===== 

            7 compute_2c_integrals
            6 get_2c_integrals
            5 mp2_ri_gpw_compute_in
            4 mp2_gpw_main
            3 mp2_main
            2 qs_energies
            1 CP2K

 *******************************************************************************
 *   ___                                                                       *
 *  /   \                                                                      *
 * [ABORT]                                                                     *
 *  \___/   Product of block size and number of RI functions should not exceed *
 *    |                          total number of processes                     *
 *  O/|                                                                        *
 * /| |                                                                        *
 * / \                                                         mp2_ri_2c.F:892 *
 *******************************************************************************


 ===== Routine Calling Stack ===== 

            7 compute_2c_integrals
            6 get_2c_integrals
            5 mp2_ri_gpw_compute_in
            4 mp2_gpw_main
            3 mp2_main
            2 qs_energies
            1 CP2K

 *******************************************************************************
 *   ___                                                                       *
 *  /   \                                                                      *
 * [ABORT]                                                                     *
 *  \___/   Product of block size and number of RI functions should not exceed *
 *    |                          total number of processes                     *
 *  O/|                                                                        *
 * /| |                                                                        *
 * / \                                                         mp2_ri_2c.F:892 *
 *******************************************************************************


 ===== Routine Calling Stack ===== 

            7 compute_2c_integrals
            6 get_2c_integrals
            5 mp2_ri_gpw_compute_in
            4 mp2_gpw_main
            3 mp2_main
            2 qs_energies
            1 CP2K

 *******************************************************************************
 *   ___                                                                       *
 *  /   \                                                                      *
 * [ABORT]                                                                     *
 *  \___/   Product of block size and number of RI functions should not exceed *
 *    |                          total number of processes                     *
 *  O/|                                                                        *
 * /| |                                                                        *
 * / \                                                         mp2_ri_2c.F:892 *
 *******************************************************************************


 ===== Routine Calling Stack ===== 

            7 compute_2c_integrals
            6 get_2c_integrals
            5 mp2_ri_gpw_compute_in
            4 mp2_gpw_main
            3 mp2_main
            2 qs_energies
            1 CP2K

 *******************************************************************************
 *   ___                                                                       *
 *  /   \                                                                      *
 * [ABORT]                                                                     *
 *  \___/   Product of block size and number of RI functions should not exceed *
 *    |                          total number of processes                     *
 *  O/|                                                                        *
 * /| |                                                                        *
 * / \                                                         mp2_ri_2c.F:892 *
 *******************************************************************************


 ===== Routine Calling Stack ===== 

            7 compute_2c_integrals
            6 get_2c_integrals
            5 mp2_ri_gpw_compute_in
            4 mp2_gpw_main
            3 mp2_main
            2 qs_energies
            1 CP2K

 *******************************************************************************
 *   ___                                                                       *
 *  /   \                                                                      *
 * [ABORT]                                                                     *
 *  \___/   Product of block size and number of RI functions should not exceed *
 *    |                          total number of processes                     *
 *  O/|                                                                        *
 * /| |                                                                        *
 * / \                                                         mp2_ri_2c.F:892 *
 *******************************************************************************


 ===== Routine Calling Stack ===== 

            7 compute_2c_integrals
            6 get_2c_integrals
            5 mp2_ri_gpw_compute_in
            4 mp2_gpw_main
            3 mp2_main
            2 qs_energies
            1 CP2K

 *******************************************************************************
 *   ___                                                                       *
 *  /   \                                                                      *
 * [ABORT]                                                                     *
 *  \___/   Product of block size and number of RI functions should not exceed *
 *    |                          total number of processes                     *
 *  O/|                                                                        *
 * /| |                                                                        *
 * / \                                                         mp2_ri_2c.F:892 *
 *******************************************************************************


 ===== Routine Calling Stack ===== 

            7 compute_2c_integrals
            6 get_2c_integrals
            5 mp2_ri_gpw_compute_in
            4 mp2_gpw_main
            3 mp2_main
            2 qs_energies
            1 CP2K

 *******************************************************************************
 *   ___                                                                       *
 *  /   \                                                                      *
 * [ABORT]                                                                     *
 *  \___/   Product of block size and number of RI functions should not exceed *
 *    |                          total number of processes                     *
 *  O/|                                                                        *
 * /| |                                                                        *
 * / \                                                         mp2_ri_2c.F:892 *
 *******************************************************************************


 ===== Routine Calling Stack ===== 

            7 compute_2c_integrals
            6 get_2c_integrals
            5 mp2_ri_gpw_compute_in
            4 mp2_gpw_main
            3 mp2_main
            2 qs_energies
            1 CP2K

 *******************************************************************************
 *   ___                                                                       *
 *  /   \                                                                      *
 * [ABORT]                                                                     *
 *  \___/   Product of block size and number of RI functions should not exceed *
 *    |                          total number of processes                     *
 *  O/|                                                                        *
 * /| |                                                                        *
 * / \                                                         mp2_ri_2c.F:892 *
 *******************************************************************************


 ===== Routine Calling Stack ===== 

            7 compute_2c_integrals
            6 get_2c_integrals
            5 mp2_ri_gpw_compute_in
            4 mp2_gpw_main
            3 mp2_main
            2 qs_energies
            1 CP2K
