 DBCSR| CPU Multiplication driver                                           BLAS (U)
 DBCSR| Multrec recursion limit                                              512 (U)
 DBCSR| Multiplication stack size                                           1000 (D)
 DBCSR| Maximum elements for images                                    UNLIMITED (U)
 DBCSR| Multiplicative factor virtual images                                   1 (U)
 DBCSR| Use multiplication densification                                       T (D)
 DBCSR| Multiplication size stacks                                             3 (U)
 DBCSR| Use memory pool for CPU allocation                                     F (U)
 DBCSR| Number of 3D layers                                               SINGLE (U)
 DBCSR| Use MPI memory allocation                                              F (U)
 DBCSR| Use RMA algorithm                                                      F (U)
 DBCSR| Use Communication thread                                               T (U)
 DBCSR| Communication thread load                                             75 (D)
 DBCSR| MPI: My process id                                                     0
 DBCSR| MPI: Number of processes                                              48
 DBCSR| OMP: Current number of threads                                         4
 DBCSR| OMP: Max number of threads                                             4
 DBCSR| Split modifier for TAS multiplication algorithm                  1.0E+00 (U)


  **** **** ******  **  PROGRAM STARTED AT               2025-03-26 04:43:56.394
 ***** ** ***  *** **   PROGRAM STARTED ON                          i01r09c05s04
 **    ****   ******    PROGRAM STARTED BY                               di38fab
 ***** **    ** ** **   PROGRAM PROCESS ID                               3037213
  **** **  *******  **  PROGRAM STARTED IN /hppfs/scratch/04/di38fab/05_MOL/W4-1
                                           1+ALK/c2/SZV/GW+BSE/1e-4

 CP2K| version string:                 CP2K version 2025.1 (Development Version)
 CP2K| source code revision number:                                  git:d2e611a
 CP2K| cp2kflags: omp libint fftw3 libxc parallel scalapack max_contr=4         
 CP2K| is freely available from                            https://www.cp2k.org/
 CP2K| Program compiled at                       Thu 06 Mar 2025 05:09:20 PM CET
 CP2K| Program compiled on                                               login02
 CP2K| Program compiled for                                        Supermuc-foss
 CP2K| Data directory path                  /hppfs/work/pn36zo/di38fab/cp2k/data
 CP2K| Input file name                                                    GW.inp

 GLOBAL| Force Environment number                                              1
 GLOBAL| Basis set file name            /hppfs/scratch/04/di38fab/04_TMD/BASIS_A
 GLOBAL| Potential file name            /hppfs/work/pn36zo/di38fab/cp2k/data/ALL
 GLOBAL| MM Potential file name                                     MM_POTENTIAL
 GLOBAL| Coordinate file name                                      __STD_INPUT__
 GLOBAL| Method name                                                        CP2K
 GLOBAL| Project name                                                       MoS2
 GLOBAL| Run type                                                         ENERGY
 GLOBAL| FFT library                                                       FFTW3
 GLOBAL| Diagonalization library                                       ScaLAPACK
 GLOBAL| DGEMM library                                                      BLAS
 GLOBAL| Orthonormality check for eigenvectors                          DISABLED
 GLOBAL| Matrix multiplication library                                 ScaLAPACK
 GLOBAL| All-to-all communication in single precision                          F
 GLOBAL| FFTs using library dependent lengths                                  F
 GLOBAL| Grid backend                                                       AUTO
 GLOBAL| Global print level                                               MEDIUM
 GLOBAL| MPI I/O enabled                                                       T
 GLOBAL| Total number of message passing processes                            48
 GLOBAL| Number of threads for this process                                    4
 GLOBAL| This output is from process                                           0
 GLOBAL| OpenMP stack size per thread (OMP_STACKSIZE)                    default
 GLOBAL| CPU model name             Intel(R) Xeon(R) Platinum 8174 CPU @ 3.10GHz

 MEMORY| system memory details [Kb]
 MEMORY|                        rank 0           min           max       average
 MEMORY| MemTotal             98436708      98436664      98436708      98436675
 MEMORY| MemFree              83813256      83758584      84058648      83856282
 MEMORY| Buffers                     0             0             0             0
 MEMORY| Cached                2482644       2390784       2618980       2472409
 MEMORY| Slab                  1261188       1231972       1261188       1246628
 MEMORY| SReclaimable           278136        272596        285960        279278
 MEMORY| MemLikelyFree        86574036      86472288      86722028      86607969


 *** Fundamental physical constants (SI units) ***

 *** Literature: B. J. Mohr and B. N. Taylor,
 ***             CODATA recommended values of the fundamental physical
 ***             constants: 2006, Web Version 5.1
 ***             http://physics.nist.gov/constants

 Speed of light in vacuum [m/s]                             2.99792458000000E+08
 Magnetic constant or permeability of vacuum [N/A**2]       1.25663706143592E-06
 Electric constant or permittivity of vacuum [F/m]          8.85418781762039E-12
 Planck constant (h) [J*s]                                  6.62606896000000E-34
 Planck constant (h-bar) [J*s]                              1.05457162825177E-34
 Elementary charge [C]                                      1.60217648700000E-19
 Electron mass [kg]                                         9.10938215000000E-31
 Electron g factor [ ]                                     -2.00231930436220E+00
 Proton mass [kg]                                           1.67262163700000E-27
 Fine-structure constant                                    7.29735253760000E-03
 Rydberg constant [1/m]                                     1.09737315685270E+07
 Avogadro constant [1/mol]                                  6.02214179000000E+23
 Boltzmann constant [J/K]                                   1.38065040000000E-23
 Atomic mass unit [kg]                                      1.66053878200000E-27
 Bohr radius [m]                                            5.29177208590000E-11

 *** Conversion factors ***

 [u] -> [a.u.]                                              1.82288848426455E+03
 [Angstrom] -> [Bohr] = [a.u.]                              1.88972613288564E+00
 [a.u.] = [Bohr] -> [Angstrom]                              5.29177208590000E-01
 [a.u.] -> [s]                                              2.41888432650478E-17
 [a.u.] -> [fs]                                             2.41888432650478E-02
 [a.u.] -> [J]                                              4.35974393937059E-18
 [a.u.] -> [N]                                              8.23872205491840E-08
 [a.u.] -> [K]                                              3.15774647902944E+05
 [a.u.] -> [kJ/mol]                                         2.62549961709828E+03
 [a.u.] -> [kcal/mol]                                       6.27509468713739E+02
 [a.u.] -> [Pa]                                             2.94210107994716E+13
 [a.u.] -> [bar]                                            2.94210107994716E+08
 [a.u.] -> [atm]                                            2.90362800883016E+08
 [a.u.] -> [eV]                                             2.72113838565563E+01
 [a.u.] -> [Hz]                                             6.57968392072181E+15
 [a.u.] -> [1/cm] (wave numbers)                            2.19474631370540E+05
 [a.u./Bohr**2] -> [1/cm]                                   5.14048714338585E+03
 

 CELL_TOP| Volume [angstrom^3]:                                     27000.000000
 CELL_TOP| Vector a [angstrom    30.000     0.000     0.000   |a| =    30.000000
 CELL_TOP| Vector b [angstrom     0.000    30.000     0.000   |b| =    30.000000
 CELL_TOP| Vector c [angstrom     0.000     0.000    30.000   |c| =    30.000000
 CELL_TOP| Angle (b,c), alpha [degree]:                                90.000000
 CELL_TOP| Angle (a,c), beta  [degree]:                                90.000000
 CELL_TOP| Angle (a,b), gamma [degree]:                                90.000000
 CELL_TOP| Numerically orthorhombic:                                         YES
 CELL_TOP| Periodicity                                                      NONE

 GENERATE|  Preliminary Number of Bonds generated:                             0
 GENERATE|  Achieved consistency in connectivity generation.

 CELL| Volume [angstrom^3]:                                         27000.000000
 CELL| Vector a [angstrom]:      30.000     0.000     0.000   |a| =    30.000000
 CELL| Vector b [angstrom]:       0.000    30.000     0.000   |b| =    30.000000
 CELL| Vector c [angstrom]:       0.000     0.000    30.000   |c| =    30.000000
 CELL| Angle (b,c), alpha [degree]:                                    90.000000
 CELL| Angle (a,c), beta  [degree]:                                    90.000000
 CELL| Angle (a,b), gamma [degree]:                                    90.000000
 CELL| Numerically orthorhombic:                                             YES
 CELL| Periodicity                                                          NONE

 CELL_REF| Volume [angstrom^3]:                                     27000.000000
 CELL_REF| Vector a [angstrom    30.000     0.000     0.000   |a| =    30.000000
 CELL_REF| Vector b [angstrom     0.000    30.000     0.000   |b| =    30.000000
 CELL_REF| Vector c [angstrom     0.000     0.000    30.000   |c| =    30.000000
 CELL_REF| Angle (b,c), alpha [degree]:                                90.000000
 CELL_REF| Angle (a,c), beta  [degree]:                                90.000000
 CELL_REF| Angle (a,b), gamma [degree]:                                90.000000
 CELL_REF| Numerically orthorhombic:                                         YES
 CELL_REF| Periodicity                                                      NONE

 *******************************************************************************
 *******************************************************************************
 **                                                                           **
 **     #####                         ##              ##                      **
 **    ##   ##            ##          ##              ##                      **
 **   ##     ##                       ##            ######                    **
 **   ##     ##  ##   ##  ##   #####  ##  ##   ####   ##    #####    #####    **
 **   ##     ##  ##   ##  ##  ##      ## ##   ##      ##   ##   ##  ##   ##   **
 **   ##  ## ##  ##   ##  ##  ##      ####     ###    ##   ######   ######    **
 **    ##  ###   ##   ##  ##  ##      ## ##      ##   ##   ##       ##        **
 **     #######   #####   ##   #####  ##  ##  ####    ##    #####   ##        **
 **           ##                                                    ##        **
 **                                                                           **
 **                                                ... make the atoms dance   **
 **                                                                           **
 **            Copyright (C) by CP2K developers group (2000-2025)             **
 **                      J. Chem. Phys. 152, 194103 (2020)                    **
 **                                                                           **
 *******************************************************************************

 DFT| Spin restricted Kohn-Sham (RKS) calculation                            RKS
 DFT| Multiplicity                                                             1
 DFT| Number of spin states                                                    1
 DFT| Charge                                                                   0
 DFT| Self-interaction correction (SIC)                                       NO
 DFT| Cutoffs: density                                              1.000000E-10
 DFT|          gradient                                             1.000000E-10
 DFT|          tau                                                  1.000000E-10
 DFT|          cutoff_smoothing_range                               0.000000E+00
 DFT| XC density smoothing                                                  NONE
 DFT| XC derivatives                                                          PW

 FUNCTIONAL| PBE:
 FUNCTIONAL| J.P.Perdew, K.Burke, M.Ernzerhof, Phys. Rev. Letter, vol. 77, n 18,
 FUNCTIONAL|  pp. 3865-3868, (1996)sx=0.750sc=1.000{spin unpolarized}           


 QS| Method:                                                                GAPW
 QS| Density plane wave grid type                        NON-SPHERICAL FULLSPACE
 QS| Number of grid levels:                                                    4
 QS| Density cutoff [a.u.]:                                                250.0
 QS| Multi grid cutoff [a.u.]: 1) grid level                               250.0
 QS|                           2) grid level                                83.3
 QS|                           3) grid level                                27.8
 QS|                           4) grid level                                 9.3
 QS| Grid level progression factor:                                          3.0
 QS| Relative density cutoff [a.u.]:                                        50.0
 QS| Interaction thresholds: eps_pgf_orb:                                1.0E-12
 QS|                         eps_filter_matrix:                          0.0E+00
 QS|                         eps_core_charge:                            1.0E-14
 QS|                         eps_rho_gspace:                             1.0E-12
 QS|                         eps_rho_rspace:                             1.0E-12
 QS|                         eps_gvg_rspace:                             1.0E-06
 QS|                         eps_ppl:                                    1.0E-02
 QS|                         eps_ppnl:                                   1.0E-08
 QS| GAPW|      One center basis from orbital basis primitives
 QS| GAPW|                   eps_fit:                                    1.0E-04
 QS| GAPW|                   eps_iso:                                    1.0E-12
 QS| GAPW|                   eps_svd:                                    1.0E-08
 QS| GAPW|                   eps_cpc:                                    1.0E-12
 QS| GAPW|   atom-r-grid: quadrature:                                     GC_LOG
 QS| GAPW|      atom-s-grid:  max l :                                          4
 QS| GAPW|      max_l_rho0 :                                                   2


 ATOMIC KIND INFORMATION

  1. Atomic kind: C                                     Number of atoms:       2

     Orbital Basis Set                                         aug-SZV-MOLOPT-ae

       Number of orbital shell sets:                                           2
       Number of orbital shells:                                               6
       Number of primitive Cartesian functions:                               13
       Number of Cartesian basis functions:                                   15
       Number of spherical basis functions:                                   14
       Norm type:                                                              2

       Normalised Cartesian orbitals:

                        Set   Shell   Orbital            Exponent    Coefficient

                          1       1    2s                0.070000       0.000000
                                                         0.143687       0.040037
                                                         0.313471       0.177689
                                                         0.721783       0.139661
                                                         1.876046      -0.038599
                                                         6.036200      -0.128975
                                                        30.497239      -0.122578

                          1       2    3s                0.070000      -0.142268
                                                         0.143687       0.288819
                                                         0.313471       0.010360
                                                         0.721783       0.175994
                                                         1.876046       0.000000
                                                         6.036200       0.000000
                                                        30.497239       0.000000

                          1       3    3px               0.070000       0.000000
                                                         0.143687       0.012825
                                                         0.313471       0.142381
                                                         0.721783       0.396426
                                                         1.876046       0.544234
                                                         6.036200       0.508157
                                                        30.497239       0.384077
                          1       3    3py               0.070000       0.000000
                                                         0.143687       0.012825
                                                         0.313471       0.142381
                                                         0.721783       0.396426
                                                         1.876046       0.544234
                                                         6.036200       0.508157
                                                        30.497239       0.384077
                          1       3    3pz               0.070000       0.000000
                                                         0.143687       0.012825
                                                         0.313471       0.142381
                                                         0.721783       0.396426
                                                         1.876046       0.544234
                                                         6.036200       0.508157
                                                        30.497239       0.384077

                          1       4    4px               0.070000       0.076505
                                                         0.143687      -0.086104
                                                         0.313471       0.010230
                                                         0.721783       0.129894
                                                         1.876046       0.000000
                                                         6.036200       0.000000
                                                        30.497239       0.000000
                          1       4    4py               0.070000       0.076505
                                                         0.143687      -0.086104
                                                         0.313471       0.010230
                                                         0.721783       0.129894
                                                         1.876046       0.000000
                                                         6.036200       0.000000
                                                        30.497239       0.000000
                          1       4    4pz               0.070000       0.076505
                                                         0.143687      -0.086104
                                                         0.313471       0.010230
                                                         0.721783       0.129894
                                                         1.876046       0.000000
                                                         6.036200       0.000000
                                                        30.497239       0.000000

                          1       5    4dx2              0.070000       0.004316
                                                         0.143687       0.012639
                                                         0.313471       0.125057
                                                         0.721783       0.080411
                                                         1.876046       0.000000
                                                         6.036200       0.000000
                                                        30.497239       0.000000
                          1       5    4dxy              0.070000       0.007476
                                                         0.143687       0.021892
                                                         0.313471       0.216606
                                                         0.721783       0.139276
                                                         1.876046       0.000000
                                                         6.036200       0.000000
                                                        30.497239       0.000000
                          1       5    4dxz              0.070000       0.007476
                                                         0.143687       0.021892
                                                         0.313471       0.216606
                                                         0.721783       0.139276
                                                         1.876046       0.000000
                                                         6.036200       0.000000
                                                        30.497239       0.000000
                          1       5    4dy2              0.070000       0.004316
                                                         0.143687       0.012639
                                                         0.313471       0.125057
                                                         0.721783       0.080411
                                                         1.876046       0.000000
                                                         6.036200       0.000000
                                                        30.497239       0.000000
                          1       5    4dyz              0.070000       0.007476
                                                         0.143687       0.021892
                                                         0.313471       0.216606
                                                         0.721783       0.139276
                                                         1.876046       0.000000
                                                         6.036200       0.000000
                                                        30.497239       0.000000
                          1       5    4dz2              0.070000       0.004316
                                                         0.143687       0.012639
                                                         0.313471       0.125057
                                                         0.721783       0.080411
                                                         1.876046       0.000000
                                                         6.036200       0.000000
                                                        30.497239       0.000000

                          2       1    1s              742.737049       0.929185
                                                       136.180025       1.402437
                                                        38.098264       1.841991
                                                        13.087782       1.817278
                                                         5.082369       1.004768
                                                         2.093200       0.161650

     RI Auxiliary Basis Set             RI_aug-SZV-MOLOPT-ae_N_RI_048_s_p_d_f_g_

       Number of orbital shell sets:                                          14
       Number of orbital shells:                                              14
       Number of primitive Cartesian functions:                               14
       Number of Cartesian basis functions:                                   62
       Number of spherical basis functions:                                   48
       Norm type:                                                              2

       Normalised Cartesian orbitals:

                        Set   Shell   Orbital            Exponent    Coefficient

                          1       1    1s                0.182132       0.198701

                          2       1    7px               0.213594       0.206979
                          2       1    7py               0.213594       0.206979
                          2       1    7pz               0.213594       0.206979

                          3       1   10dx2              0.381125       0.304282
                          3       1   10dxy              0.381125       0.527033
                          3       1   10dxz              0.381125       0.527033
                          3       1   10dy2              0.381125       0.304282
                          3       1   10dyz              0.381125       0.527033
                          3       1   10dz2              0.381125       0.304282

                          4       1    2s                0.433905       0.381027

                          5       1   12fx3              0.524446       0.344573
                          5       1   12fx2y             0.524446       0.770488
                          5       1   12fx2z             0.524446       0.770488
                          5       1   12fxy2             0.524446       0.770488
                          5       1   12fxyz             0.524446       1.334524
                          5       1   12fxz2             0.524446       0.770488
                          5       1   12fy3              0.524446       0.344573
                          5       1   12fy2z             0.524446       0.770488
                          5       1   12fyz2             0.524446       0.770488
                          5       1   12fz3              0.524446       0.344573

                          6       1    8px               0.915857       1.277099
                          6       1    8py               0.915857       1.277099
                          6       1    8pz               0.915857       1.277099

                          7       1   14gx4              1.217666       1.912659
                          7       1   14gx3y             1.217666       5.060419
                          7       1   14gx3z             1.217666       5.060419
                          7       1   14gx2y2            1.217666       6.532973
                          7       1   14gx2yz            1.217666      11.315442
                          7       1   14gx2z2            1.217666       6.532973
                          7       1   14gxy3             1.217666       5.060419
                          7       1   14gxy2z            1.217666      11.315442
                          7       1   14gxyz2            1.217666      11.315442
                          7       1   14gxz3             1.217666       5.060419
                          7       1   14gy4              1.217666       1.912659
                          7       1   14gy3z             1.217666       5.060419
                          7       1   14gy2z2            1.217666       6.532973
                          7       1   14gyz3             1.217666       5.060419
                          7       1   14gz4              1.217666       1.912659

                          8       1   11dx2              1.581488       3.670921
                          8       1   11dxy              1.581488       6.358221
                          8       1   11dxz              1.581488       6.358221
                          8       1   11dy2              1.581488       3.670921
                          8       1   11dyz              1.581488       6.358221
                          8       1   11dz2              1.581488       3.670921

                          9       1    3s                1.620693       1.023730

                         10       1   13fx3              2.677157      13.496481
                         10       1   13fx2y             2.677157      30.179050
                         10       1   13fx2z             2.677157      30.179050
                         10       1   13fxy2             2.677157      30.179050
                         10       1   13fxyz             2.677157      52.271648
                         10       1   13fxz2             2.677157      30.179050
                         10       1   13fy3              2.677157      13.496481
                         10       1   13fy2z             2.677157      30.179050
                         10       1   13fyz2             2.677157      30.179050
                         10       1   13fz3              2.677157      13.496481

                         11       1    4s                5.999661       2.732154

                         12       1    9px               9.284861      23.102519
                         12       1    9py               9.284861      23.102519
                         12       1    9pz               9.284861      23.102519

                         13       1    5s               22.224963       7.295262

                         14       1    6s               82.329769      19.479498

       Atomic covalent radius [Angstrom]:                                  0.770

       Atomic van der Waals radius [Angstrom]:                             1.700

     The atoms of this atomic kind are PAW atoms (GAPW):
       Hard Gaussian function radius:                                      1.512
       Rho0 radius:                                                        1.512
       Maximum GTO radius used for PAW projector construction:            24.566

     GAPW Soft Basis Set                                  aug-SZV-MOLOPT-ae_soft

       Number of orbital shell sets:                                           2
       Number of orbital shells:                                               6
       Number of primitive Cartesian functions:                                6
       Number of Cartesian basis functions:                                   15
       Number of spherical basis functions:                                   14
       Norm type:                                                              2

       Normalised Cartesian orbitals:

                        Set   Shell   Orbital            Exponent    Coefficient

                          1       1    2s                0.070000       0.000000
                                                         0.143687       0.040037
                                                         0.313471       0.177689
                                                         0.721783       0.139661
                                                         1.876046      -0.038599

                          1       2    3s                0.070000      -0.142268
                                                         0.143687       0.288819
                                                         0.313471       0.010360
                                                         0.721783       0.175994
                                                         1.876046       0.000000

                          1       3    3px               0.070000       0.000000
                                                         0.143687       0.012825
                                                         0.313471       0.142381
                                                         0.721783       0.396426
                                                         1.876046       0.544234
                          1       3    3py               0.070000       0.000000
                                                         0.143687       0.012825
                                                         0.313471       0.142381
                                                         0.721783       0.396426
                                                         1.876046       0.544234
                          1       3    3pz               0.070000       0.000000
                                                         0.143687       0.012825
                                                         0.313471       0.142381
                                                         0.721783       0.396426
                                                         1.876046       0.544234

                          1       4    4px               0.070000       0.076505
                                                         0.143687      -0.086104
                                                         0.313471       0.010230
                                                         0.721783       0.129894
                                                         1.876046       0.000000
                          1       4    4py               0.070000       0.076505
                                                         0.143687      -0.086104
                                                         0.313471       0.010230
                                                         0.721783       0.129894
                                                         1.876046       0.000000
                          1       4    4pz               0.070000       0.076505
                                                         0.143687      -0.086104
                                                         0.313471       0.010230
                                                         0.721783       0.129894
                                                         1.876046       0.000000

                          1       5    4dx2              0.070000       0.004316
                                                         0.143687       0.012639
                                                         0.313471       0.125057
                                                         0.721783       0.080411
                                                         1.876046       0.000000
                          1       5    4dxy              0.070000       0.007476
                                                         0.143687       0.021892
                                                         0.313471       0.216606
                                                         0.721783       0.139276
                                                         1.876046       0.000000
                          1       5    4dxz              0.070000       0.007476
                                                         0.143687       0.021892
                                                         0.313471       0.216606
                                                         0.721783       0.139276
                                                         1.876046       0.000000
                          1       5    4dy2              0.070000       0.004316
                                                         0.143687       0.012639
                                                         0.313471       0.125057
                                                         0.721783       0.080411
                                                         1.876046       0.000000
                          1       5    4dyz              0.070000       0.007476
                                                         0.143687       0.021892
                                                         0.313471       0.216606
                                                         0.721783       0.139276
                                                         1.876046       0.000000
                          1       5    4dz2              0.070000       0.004316
                                                         0.143687       0.012639
                                                         0.313471       0.125057
                                                         0.721783       0.080411
                                                         1.876046       0.000000

                          2       1    1s                2.093200       0.161650

     AE Potential information for                                            ALL

       Description:                                       All-electron potential
                                          Krack, Parrinello, PCCP 2, 2105 (2000)

       Gaussian exponent of the core charge distribution:               4.109048
       Electronic configuration (s p d ...):                           4   2   0


 MOLECULE KIND INFORMATION


 All atoms are their own molecule, skipping detailed information


 TOTAL NUMBERS AND MAXIMUM NUMBERS

  Total number of            - Atomic kinds:                                   1
                             - Atoms:                                          2
                             - Shell sets:                                     4
                             - Shells:                                        12
                             - Primitive Cartesian functions:                 26
                             - Cartesian basis functions:                     30
                             - Spherical basis functions:                     28

  Maximum angular momentum of the orbital basis functions:                     2


 MODULE QUICKSTEP: ATOMIC COORDINATES IN ANGSTROM

   Atom Kind Element         X             Y             Z       Z(eff)     Mass
      1    1 C     6     15.620000     15.000000     15.000000   6.0000  12.0107
      2    1 C     6     14.380000     15.000000     15.000000   6.0000  12.0107



 SCF PARAMETERS         Density guess:                                    ATOMIC
                        --------------------------------------------------------
                        max_scf:                                             500
                        max_scf_history:                                       0
                        max_diis:                                              4
                        --------------------------------------------------------
                        eps_scf:                                        1.00E-06
                        eps_scf_history:                                0.00E+00
                        eps_diis:                                       1.00E-01
                        eps_eigval:                                     1.00E-05
                        --------------------------------------------------------
                        level_shift [a.u.]:                             0.000000
                        added MOs                                        22    0
                        --------------------------------------------------------
                        Mixing method:                            BROYDEN_MIXING
                                                charge density mixing in g-space
                        --------------------------------------------------------
                        No outer SCF

 PW_GRID| Information for grid number                                          1
 PW_GRID| Grid distributed over                                    48 processors
 PW_GRID| Real space group dimensions                                    48    1
 PW_GRID| the grid is blocked:                                                NO
 PW_GRID| Cutoff [a.u.]                                                    250.0
 PW_GRID| spherical cutoff:                                                   NO
 PW_GRID|   Bounds   1           -202     202                Points:         405
 PW_GRID|   Bounds   2           -202     202                Points:         405
 PW_GRID|   Bounds   3           -202     202                Points:         405
 PW_GRID| Volume element (a.u.^3)  0.2743E-02     Volume (a.u.^3)    182205.0337
 PW_GRID| Grid span                                                    FULLSPACE
 PW_GRID|   Distribution                         Average         Max         Min
 PW_GRID|   G-Vectors                          1383960.9     1384290     1383885
 PW_GRID|   G-Rays                                3417.2        3418        3417
 PW_GRID|   Real Space Points                  1383960.9     1476225     1312200

 PW_GRID| Information for grid number                                          2
 PW_GRID| Number of the reference grid                                         1
 PW_GRID| Grid distributed over                                    48 processors
 PW_GRID| Real space group dimensions                                    48    1
 PW_GRID| the grid is blocked:                                                NO
 PW_GRID| Cutoff [a.u.]                                                     83.3
 PW_GRID| spherical cutoff:                                                   NO
 PW_GRID|   Bounds   1           -120     119                Points:         240
 PW_GRID|   Bounds   2           -120     119                Points:         240
 PW_GRID|   Bounds   3           -120     119                Points:         240
 PW_GRID| Volume element (a.u.^3)  0.1318E-01     Volume (a.u.^3)    182205.0337
 PW_GRID| Grid span                                                    FULLSPACE
 PW_GRID|   Distribution                         Average         Max         Min
 PW_GRID|   G-Vectors                           288000.0      288720      287520
 PW_GRID|   G-Rays                                1200.0        1203        1198
 PW_GRID|   Real Space Points                   288000.0      288000      288000

 PW_GRID| Information for grid number                                          3
 PW_GRID| Number of the reference grid                                         1
 PW_GRID| Grid distributed over                                    48 processors
 PW_GRID| Real space group dimensions                                    48    1
 PW_GRID| the grid is blocked:                                                NO
 PW_GRID| Cutoff [a.u.]                                                     27.8
 PW_GRID| spherical cutoff:                                                   NO
 PW_GRID|   Bounds   1            -67      67                Points:         135
 PW_GRID|   Bounds   2            -67      67                Points:         135
 PW_GRID|   Bounds   3            -67      67                Points:         135
 PW_GRID| Volume element (a.u.^3)  0.7406E-01     Volume (a.u.^3)    182205.0337
 PW_GRID| Grid span                                                    FULLSPACE
 PW_GRID|   Distribution                         Average         Max         Min
 PW_GRID|   G-Vectors                            51257.8       51570       51030
 PW_GRID|   G-Rays                                 379.7         382         378
 PW_GRID|   Real Space Points                    51257.8       54675       36450

 PW_GRID| Information for grid number                                          4
 PW_GRID| Number of the reference grid                                         1
 PW_GRID| Grid distributed over                                    48 processors
 PW_GRID| Real space group dimensions                                    48    1
 PW_GRID| the grid is blocked:                                                NO
 PW_GRID| Cutoff [a.u.]                                                      9.3
 PW_GRID| spherical cutoff:                                                   NO
 PW_GRID|   Bounds   1            -40      39                Points:          80
 PW_GRID|   Bounds   2            -40      39                Points:          80
 PW_GRID|   Bounds   3            -40      39                Points:          80
 PW_GRID| Volume element (a.u.^3)  0.3559         Volume (a.u.^3)    182205.0337
 PW_GRID| Grid span                                                    FULLSPACE
 PW_GRID|   Distribution                         Average         Max         Min
 PW_GRID|   G-Vectors                            10666.7       10800       10560
 PW_GRID|   G-Rays                                 133.3         135         132
 PW_GRID|   Real Space Points                    10666.7       12800        6400

 POISSON| Solver                                                         WAVELET
 POISSON| Wavelet| Scaling function                                           40
 POISSON| Periodicity                                                       NONE

 RS_GRID| Information for grid number                                          1
 RS_GRID|   Bounds   1           -202     202                Points:         405
 RS_GRID|   Bounds   2           -202     202                Points:         405
 RS_GRID|   Bounds   3           -202     202                Points:         405
 RS_GRID| Real space distribution over                                  3 groups
 RS_GRID| Real space distribution along direction                              1
 RS_GRID| Border size                                                         33
 RS_GRID| Real space distribution over                                  4 groups
 RS_GRID| Real space distribution along direction                              2
 RS_GRID| Border size                                                         33
 RS_GRID| Real space distribution over                                  4 groups
 RS_GRID| Real space distribution along direction                              3
 RS_GRID| Border size                                                         33
 RS_GRID|   Distribution                         Average         Max         Min
 RS_GRID|   Planes                                 201.0         201         201
 RS_GRID|   Distribution                         Average         Max         Min
 RS_GRID|   Planes                                 167.2         168         167
 RS_GRID|   Distribution                         Average         Max         Min
 RS_GRID|   Planes                                 167.2         168         167

 RS_GRID| Information for grid number                                          2
 RS_GRID|   Bounds   1           -120     119                Points:         240
 RS_GRID|   Bounds   2           -120     119                Points:         240
 RS_GRID|   Bounds   3           -120     119                Points:         240
 RS_GRID| Real space distribution over                                  3 groups
 RS_GRID| Real space distribution along direction                              1
 RS_GRID| Border size                                                         35
 RS_GRID| Real space distribution over                                  4 groups
 RS_GRID| Real space distribution along direction                              2
 RS_GRID| Border size                                                         35
 RS_GRID| Real space distribution over                                  4 groups
 RS_GRID| Real space distribution along direction                              3
 RS_GRID| Border size                                                         35
 RS_GRID|   Distribution                         Average         Max         Min
 RS_GRID|   Planes                                 150.0         150         150
 RS_GRID|   Distribution                         Average         Max         Min
 RS_GRID|   Planes                                 130.0         130         130
 RS_GRID|   Distribution                         Average         Max         Min
 RS_GRID|   Planes                                 130.0         130         130

 RS_GRID| Information for grid number                                          3
 RS_GRID|   Bounds   1            -67      67                Points:         135
 RS_GRID|   Bounds   2            -67      67                Points:         135
 RS_GRID|   Bounds   3            -67      67                Points:         135
 RS_GRID| Real space fully replicated
 RS_GRID| Group size                                                           1

 RS_GRID| Information for grid number                                          4
 RS_GRID|   Bounds   1            -40      39                Points:          80
 RS_GRID|   Bounds   2            -40      39                Points:          80
 RS_GRID|   Bounds   3            -40      39                Points:          80
 RS_GRID| Real space fully replicated
 RS_GRID| Group size                                                           1

  HFX_INFO| Replica ID:                                                        1
  HFX_INFO| FRACTION:                                               0.2500000000
  HFX_INFO| Interaction Potential:                                       COULOMB
  HFX_INFO| EPS_SCHWARZ:                                                 1.0E-10
  HFX_INFO| EPS_SCHWARZ_FORCES                                           1.0E-08
  HFX_INFO| EPS_STORAGE_SCALING:                                         1.0E+00
  HFX_INFO| NBINS:                                                            64
  HFX_INFO| BLOCK_SIZE:                                                        1
  HFX_INFO| Number of periodic shells considered:                           NONE
  HFX_INFO| Number of periodic cells considered:                            NONE

 
 RI-RPA| using GPW style
 

 OVERLAP MATRIX CONDITION NUMBER
 1-Norm Condition Number (Estimate)
   CN : |A|*|A^-1|:  4.289E+000 *  1.449E+002   = 6.216E+002  Log(1-CN):  2.7935
 1-Norm and 2-Norm Condition Numbers using Diagonalization
   CN : |A|*|A^-1|:  4.289E+000 *  1.449E+002   = 6.216E+002  Log(1-CN):  2.7935
   CN : max/min ev:  3.122E+000 /  7.957E-003   = 3.923E+002  Log(2-CN):  2.5936

 Number of electrons:                                                         12
 Number of occupied orbitals:                                                  6
 Number of molecular orbitals:                                                28

 Number of orbital functions:                                                 28
 Number of independent orbital functions:                                     28

 Extrapolation method: initial_guess

 Atomic guess: The first density matrix is obtained in terms of atomic orbitals
               and electronic configurations assigned to each atomic kind

 Guess for atomic kind: C

 Electronic structure
    Total number of core electrons                                          0.00
    Total number of valence electrons                                       6.00
    Total number of electrons                                               6.00
    Multiplicity                                                   not specified
    S      2.00  2.00
    P      2.00


 *******************************************************************************
                  Iteration          Convergence                     Energy [au]
 *******************************************************************************
                          1        0.181972E-01                 -37.327047058214
                          2        0.113690E-01                 -37.327375013153
                          3        0.204442E-03                 -37.327563854518
                          4        0.318580E-06                 -37.327563914839

 Energy components [Hartree]           Total Energy ::          -37.327563914839
                                        Band Energy ::          -20.907151793925
                                     Kinetic Energy ::           37.918401132701
                                   Potential Energy ::          -75.245965047540
                                      Virial (-V/T) ::            1.984418192745
                                        Core Energy ::          -50.466619839572
                                          XC Energy ::           -4.803795746723
                                     Coulomb Energy ::           17.942851671456

 Orbital energies  State     L     Occupation   Energy[a.u.]          Energy[eV]

                       1     0          2.000      -9.826687         -267.397747
                       2     0          2.000      -0.471401          -12.827469

                       1     1          2.000      -0.155488           -4.231050


 Total Electron Density at R=0:                                       107.717880
 Re-scaling the density matrix to get the right number of electrons
                  # Electrons              Trace(P)               Scaling factor
                           12                12.000                        1.000


 SCF WAVEFUNCTION OPTIMIZATION

  Step     Update method      Time    Convergence         Total energy    Change
  ------------------------------------------------------------------------------

  HFX_MEM_INFO| Est. max. program size before HFX [MiB]:                    1302
  HFX_MEM_INFO| Number of cart. primitive ERI's calculated:            191263304
  HFX_MEM_INFO| Number of sph. ERI's calculated:                          230496
  HFX_MEM_INFO| Number of sph. ERI's stored in-core:                      230496
  HFX_MEM_INFO| Number of sph. ERI's stored on disk:                           0
  HFX_MEM_INFO| Number of sph. ERI's calculated on the fly:                    0
  HFX_MEM_INFO| Total memory consumption ERI's RAM [MiB]:                      3
  HFX_MEM_INFO| Whereof max-vals [MiB]:                                        2
  HFX_MEM_INFO| Total compression factor ERI's RAM:                         0.75
  HFX_MEM_INFO| Total memory consumption ERI's disk [MiB]:                     0
  HFX_MEM_INFO| Total compression factor ERI's disk:                        0.00
  HFX_MEM_INFO| Size of density/Fock matrix [MiB]:                             0
  HFX_MEM_INFO| Size of buffers [MiB]:                                         0
  HFX_MEM_INFO| Est. max. program size after HFX  [MiB]:                    1810

     1 NoMix/Diag. 0.10E+00    5.8     1.32591114       -75.7719229692 -7.58E+01
     2 Broy./Diag. 0.10E+00    2.6     0.07035765       -75.8326049100 -6.07E-02
     3 Broy./Diag. 0.10E+00    2.7     0.01253433       -75.8138421366  1.88E-02
     4 Broy./Diag. 0.10E+00    2.7     0.07463632       -75.4723750320  3.41E-01
     5 Broy./Diag. 0.10E+00    2.6     0.01673072       -75.5200580825 -4.77E-02
     6 Broy./Diag. 0.10E+00    2.7     0.02360516       -75.5654084809 -4.54E-02
     7 Broy./Diag. 0.10E+00    2.7     0.01289249       -75.5987441072 -3.33E-02
     8 Broy./Diag. 0.10E+00    2.7     0.00461396       -75.6140421523 -1.53E-02
     9 Broy./Diag. 0.10E+00    2.8     0.01027230       -75.6279836283 -1.39E-02
    10 Broy./Diag. 0.10E+00    2.8     0.00262021       -75.6364107129 -8.43E-03
    11 Broy./Diag. 0.10E+00    2.8     0.00970992       -75.6283617784  8.05E-03
    12 Broy./Diag. 0.10E+00    2.9     0.00247358       -75.6323132818 -3.95E-03
    13 Broy./Diag. 0.10E+00    2.9     0.00212290       -75.6357893991 -3.48E-03
    14 Broy./Diag. 0.10E+00    2.9     0.00314677       -75.6423693915 -6.58E-03
    15 Broy./Diag. 0.10E+00    2.9     0.00072808       -75.6452190201 -2.85E-03
    16 Broy./Diag. 0.10E+00    2.9     0.00096928       -75.6438408794  1.38E-03
    17 Broy./Diag. 0.10E+00    2.9     0.00091562       -75.6442991012 -4.58E-04
    18 Broy./Diag. 0.10E+00    2.9     0.00085083       -75.6439877073  3.11E-04
    19 Broy./Diag. 0.10E+00    2.9     0.00036697       -75.6427031526  1.28E-03
    20 Broy./Diag. 0.10E+00    2.9     0.00176629       -75.6425483793  1.55E-04
    21 Broy./Diag. 0.10E+00    2.9     0.00174650       -75.6428174913 -2.69E-04
    22 Broy./Diag. 0.10E+00    2.9     0.00116925       -75.6427617216  5.58E-05
    23 Broy./Diag. 0.10E+00    2.9     0.00151359       -75.6428714888 -1.10E-04
    24 Broy./Diag. 0.10E+00    2.9     0.00138231       -75.6425790231  2.92E-04
    25 Broy./Diag. 0.10E+00    2.9     0.00129722       -75.6427756633 -1.97E-04
    26 Broy./Diag. 0.10E+00    2.9     0.00111493       -75.6426564388  1.19E-04
    27 Broy./Diag. 0.10E+00    2.9     0.00112673       -75.6432908418 -6.34E-04
    28 Broy./Diag. 0.10E+00    2.9     0.00122346       -75.6431642123  1.27E-04
    29 Broy./Diag. 0.10E+00    2.9     0.00096874       -75.6430729991  9.12E-05
    30 Broy./Diag. 0.10E+00    2.9     0.00111363       -75.6432055672 -1.33E-04
    31 Broy./Diag. 0.10E+00    2.9     0.00087127       -75.6430577186  1.48E-04
    32 Broy./Diag. 0.10E+00    2.9     0.00092296       -75.6429863304  7.14E-05
    33 Broy./Diag. 0.10E+00    2.9     0.00113311       -75.6429348515  5.15E-05
    34 Broy./Diag. 0.10E+00    2.9     0.00108029       -75.6429068734  2.80E-05
    35 Broy./Diag. 0.10E+00    2.9     0.00103525       -75.6432183427 -3.11E-04
    36 Broy./Diag. 0.10E+00    2.9     0.00049757       -75.6433745254 -1.56E-04
    37 Broy./Diag. 0.10E+00    2.9     0.00066204       -75.6432048999  1.70E-04
    38 Broy./Diag. 0.10E+00    2.9     0.00077232       -75.6432445744 -3.97E-05
    39 Broy./Diag. 0.10E+00    3.0     0.00073310       -75.6436631553 -4.19E-04
    40 Broy./Diag. 0.10E+00    2.9     0.00137272       -75.6427909619  8.72E-04
    41 Broy./Diag. 0.10E+00    2.9     0.00043293       -75.6432456200 -4.55E-04
    42 Broy./Diag. 0.10E+00    2.9     0.00194918       -75.6428472888  3.98E-04
    43 Broy./Diag. 0.10E+00    2.9     0.00191018       -75.6430699871 -2.23E-04
    44 Broy./Diag. 0.10E+00    2.9     0.00110757       -75.6424913397  5.79E-04
    45 Broy./Diag. 0.10E+00    2.9     0.00246122       -75.6428435983 -3.52E-04
    46 Broy./Diag. 0.10E+00    2.9     0.00111090       -75.6429471893 -1.04E-04
    47 Broy./Diag. 0.10E+00    2.9     0.00085337       -75.6428142796  1.33E-04
    48 Broy./Diag. 0.10E+00    2.9     0.00723591       -75.6458935806 -3.08E-03
    49 Broy./Diag. 0.10E+00    2.9     0.00632573       -75.6454896848  4.04E-04
    50 Broy./Diag. 0.10E+00    2.9     0.00495709       -75.6441200483  1.37E-03
    51 Broy./Diag. 0.10E+00    3.0     0.00227160       -75.6429591491  1.16E-03
    52 Broy./Diag. 0.10E+00    2.9     0.00172941       -75.6425632007  3.96E-04
    53 Broy./Diag. 0.10E+00    2.9     0.00067454       -75.6421714885  3.92E-04
    54 Broy./Diag. 0.10E+00    2.9     0.00098655       -75.6419858396  1.86E-04
    55 Broy./Diag. 0.10E+00    2.9     0.00111439       -75.6419829088  2.93E-06
    56 Broy./Diag. 0.10E+00    2.9     0.00077237       -75.6418835900  9.93E-05
    57 Broy./Diag. 0.10E+00    2.9     0.00033336       -75.6421195405 -2.36E-04
    58 Broy./Diag. 0.10E+00    2.9     0.00042271       -75.6428143029 -6.95E-04
    59 Broy./Diag. 0.10E+00    2.9     0.00035593       -75.6427571050  5.72E-05
    60 Broy./Diag. 0.10E+00    3.0     0.00022501       -75.6428036764 -4.66E-05
    61 Broy./Diag. 0.10E+00    2.9     0.00022260       -75.6428098289 -6.15E-06
    62 Broy./Diag. 0.10E+00    2.9     0.00028614       -75.6428303950 -2.06E-05
    63 Broy./Diag. 0.10E+00    2.9     0.00035838       -75.6428638126 -3.34E-05
    64 Broy./Diag. 0.10E+00    2.9     0.00044842       -75.6428330776  3.07E-05
    65 Broy./Diag. 0.10E+00    2.9     0.00095707       -75.6427775351  5.55E-05
    66 Broy./Diag. 0.10E+00    2.9     0.00068887       -75.6426289753  1.49E-04
    67 Broy./Diag. 0.10E+00    2.9     0.00083561       -75.6429318694 -3.03E-04
    68 Broy./Diag. 0.10E+00    2.9     0.00102941       -75.6430488799 -1.17E-04
    69 Broy./Diag. 0.10E+00    2.9     0.00130059       -75.6428365636  2.12E-04
    70 Broy./Diag. 0.10E+00    2.9     0.00164483       -75.6426605987  1.76E-04
    71 Broy./Diag. 0.10E+00    2.9     0.00208440       -75.6426697751 -9.18E-06
    72 Broy./Diag. 0.10E+00    3.0     0.00258982       -75.6426691638  6.11E-07
    73 Broy./Diag. 0.10E+00    2.9     0.00324122       -75.6419967942  6.72E-04
    74 Broy./Diag. 0.10E+00    3.0     0.00405084       -75.6417659633  2.31E-04
    75 Broy./Diag. 0.10E+00    2.9     0.00507177       -75.6416778899  8.81E-05
    76 Broy./Diag. 0.10E+00    2.9     0.00629428       -75.6418255233 -1.48E-04
    77 Broy./Diag. 0.10E+00    2.9     0.00783904       -75.6414901783  3.35E-04
    78 Broy./Diag. 0.10E+00    2.9     0.00974028       -75.6407149550  7.75E-04
    79 Broy./Diag. 0.10E+00    2.9     0.01209221       -75.6391727739  1.54E-03
    80 Broy./Diag. 0.10E+00    2.9     0.01495937       -75.6371590429  2.01E-03
    81 Broy./Diag. 0.10E+00    2.9     0.01808849       -75.6340895509  3.07E-03
    82 Broy./Diag. 0.10E+00    2.9     0.02146734       -75.6289364446  5.15E-03
    83 Broy./Diag. 0.10E+00    2.8     0.02492866       -75.6211544326  7.78E-03
    84 Broy./Diag. 0.10E+00    2.9     0.03026939       -75.6103323902  1.08E-02
    85 Broy./Diag. 0.10E+00    2.9     0.04356889       -75.5967955600  1.35E-02
    86 Broy./Diag. 0.10E+00    3.0     0.05692539       -75.5777037285  1.91E-02
    87 Broy./Diag. 0.10E+00    2.9     0.06918926       -75.5512758814  2.64E-02
    88 Broy./Diag. 0.10E+00    2.9     0.07805863       -75.5174290684  3.38E-02
    89 Broy./Diag. 0.10E+00    2.9     0.08064559       -75.4795965196  3.78E-02
    90 Broy./Diag. 0.10E+00    2.9     0.07553342       -75.4411303898  3.85E-02
    91 Broy./Diag. 0.10E+00    2.9     0.06537902       -75.4047861869  3.63E-02
    92 Broy./Diag. 0.10E+00    2.9     0.05751464       -75.3715407676  3.32E-02
    93 Broy./Diag. 0.10E+00    2.9     0.04788430       -75.3388323197  3.27E-02
    94 Broy./Diag. 0.10E+00    2.9     0.03837494       -75.2981382917  4.07E-02
    95 Broy./Diag. 0.10E+00    2.9     0.02276267       -75.2577306628  4.04E-02
    96 Broy./Diag. 0.10E+00    2.9     0.02145823       -75.2316614901  2.61E-02
    97 Broy./Diag. 0.10E+00    2.9     0.01892367       -75.2024423137  2.92E-02
    98 Broy./Diag. 0.10E+00    2.9     0.01384532       -75.1648723707  3.76E-02
    99 Broy./Diag. 0.10E+00    2.8     0.04886788       -75.3132662106 -1.48E-01
   100 Broy./Diag. 0.10E+00    2.9     0.02872138       -75.4072438516 -9.40E-02
   101 Broy./Diag. 0.10E+00    2.9     0.09656210       -75.7731055803 -3.66E-01
   102 Broy./Diag. 0.10E+00    2.8     0.10436505       -75.8628818253 -8.98E-02
   103 Broy./Diag. 0.10E+00    2.9     0.08553830       -75.6422789292  2.21E-01
   104 Broy./Diag. 0.10E+00    3.0     0.07026097       -75.6550845455 -1.28E-02
   105 Broy./Diag. 0.10E+00    2.9     0.14240195       -75.5456179607  1.09E-01
   106 Broy./Diag. 0.10E+00    2.8     0.25918818       -75.3645894592  1.81E-01
   107 Broy./Diag. 0.10E+00    2.9     0.24813120       -75.2308558790  1.34E-01
   108 Broy./Diag. 0.10E+00    2.9     0.06711087       -75.1736647805  5.72E-02
   109 Broy./Diag. 0.10E+00    2.9     0.16746630       -75.4971764604 -3.24E-01
   110 Broy./Diag. 0.10E+00    2.9     0.23494391       -75.6869265759 -1.90E-01
   111 Broy./Diag. 0.10E+00    2.9     0.06408885       -75.6627096997  2.42E-02
   112 Broy./Diag. 0.10E+00    2.8     0.04283115       -75.5887006914  7.40E-02
   113 Broy./Diag. 0.10E+00    2.8     0.04790813       -75.6300634629 -4.14E-02
   114 Broy./Diag. 0.10E+00    2.9     0.03751785       -75.6413341760 -1.13E-02
   115 Broy./Diag. 0.10E+00    2.8     0.02352201       -75.6292057266  1.21E-02
   116 Broy./Diag. 0.10E+00    2.9     0.02446089       -75.6121631455  1.70E-02
   117 Broy./Diag. 0.10E+00    2.9     0.03381272       -75.6126946673 -5.32E-04
   118 Broy./Diag. 0.10E+00    2.9     0.03789915       -75.6167759039 -4.08E-03
   119 Broy./Diag. 0.10E+00    2.9     0.02993345       -75.6216613755 -4.89E-03
   120 Broy./Diag. 0.10E+00    2.9     0.02530046       -75.6285570517 -6.90E-03
   121 Broy./Diag. 0.10E+00    2.9     0.02182179       -75.6289267464 -3.70E-04
   122 Broy./Diag. 0.10E+00    2.8     0.04282088       -75.6202381855  8.69E-03
   123 Broy./Diag. 0.10E+00    2.9     0.02366362       -75.5638731672  5.64E-02
   124 Broy./Diag. 0.10E+00    2.9     0.02545904       -75.5956213554 -3.17E-02
   125 Broy./Diag. 0.10E+00    2.9     0.04073918       -75.5854315193  1.02E-02
   126 Broy./Diag. 0.10E+00    2.9     0.04029039       -75.5621629213  2.33E-02
   127 Broy./Diag. 0.10E+00    3.0     0.03633842       -75.5311869802  3.10E-02
   128 Broy./Diag. 0.10E+00    2.9     0.02828747       -75.5192333586  1.20E-02
   129 Broy./Diag. 0.10E+00    2.9     0.07702111       -75.5197248281 -4.91E-04
   130 Broy./Diag. 0.10E+00    2.9     0.04045481       -75.5122996580  7.43E-03
   131 Broy./Diag. 0.10E+00    2.9     0.04399574       -75.5105292571  1.77E-03
   132 Broy./Diag. 0.10E+00    2.9     0.04777036       -75.4923006497  1.82E-02
   133 Broy./Diag. 0.10E+00    2.9     0.04998692       -75.5316411870 -3.93E-02
   134 Broy./Diag. 0.10E+00    2.9     0.08748609       -75.4529216678  7.87E-02
   135 Broy./Diag. 0.10E+00    2.9     0.12646413       -75.3476579659  1.05E-01
   136 Broy./Diag. 0.10E+00    2.9     0.11400128       -75.3169357367  3.07E-02
   137 Broy./Diag. 0.10E+00    2.9     0.10508572       -75.2498808050  6.71E-02
   138 Broy./Diag. 0.10E+00    2.9     0.07603370       -75.2639622598 -1.41E-02
   139 Broy./Diag. 0.10E+00    2.9     0.08203655       -75.2520112326  1.20E-02
   140 Broy./Diag. 0.10E+00    2.9     0.04136119       -75.2861726914 -3.42E-02
   141 Broy./Diag. 0.10E+00    2.9     0.04225017       -75.3679221547 -8.17E-02
   142 Broy./Diag. 0.10E+00    2.9     0.06187075       -75.5235583085 -1.56E-01
   143 Broy./Diag. 0.10E+00    2.9     0.07881766       -75.7232347881 -2.00E-01
   144 Broy./Diag. 0.10E+00    2.9     0.10715711       -75.7717100460 -4.85E-02
   145 Broy./Diag. 0.10E+00    2.8     0.06503973       -75.5910152623  1.81E-01
   146 Broy./Diag. 0.10E+00    2.9     0.05228771       -75.5732850329  1.77E-02
   147 Broy./Diag. 0.10E+00    2.9     0.08621289       -75.6043183661 -3.10E-02
   148 Broy./Diag. 0.10E+00    2.9     0.10636286       -75.6393429092 -3.50E-02
   149 Broy./Diag. 0.10E+00    2.9     0.08344402       -75.6429750389 -3.63E-03
   150 Broy./Diag. 0.10E+00    3.0     0.07336504       -75.6535211513 -1.05E-02
   151 Broy./Diag. 0.10E+00    2.9     0.03707680       -75.6567887845 -3.27E-03
   152 Broy./Diag. 0.10E+00    2.9     0.02650570       -75.6573754704 -5.87E-04
   153 Broy./Diag. 0.10E+00    2.9     0.03067395       -75.6706094166 -1.32E-02
   154 Broy./Diag. 0.10E+00    2.9     0.02351281       -75.6798204531 -9.21E-03
   155 Broy./Diag. 0.10E+00    2.9     0.02822768       -75.6838328428 -4.01E-03
   156 Broy./Diag. 0.10E+00    2.9     0.03298315       -75.6835427394  2.90E-04
   157 Broy./Diag. 0.10E+00    2.9     0.04331765       -75.7129814026 -2.94E-02
   158 Broy./Diag. 0.10E+00    2.9     0.02935973       -75.6631817592  4.98E-02
   159 Broy./Diag. 0.10E+00    2.9     0.03721078       -75.6482238908  1.50E-02
   160 Broy./Diag. 0.10E+00    2.9     0.03948066       -75.6538204230 -5.60E-03
   161 Broy./Diag. 0.10E+00    2.9     0.02726053       -75.6450009284  8.82E-03
   162 Broy./Diag. 0.10E+00    2.9     0.03018234       -75.6209808525  2.40E-02
   163 Broy./Diag. 0.10E+00    2.9     0.02578712       -75.6072335435  1.37E-02
   164 Broy./Diag. 0.10E+00    2.9     0.02026419       -75.5972265495  1.00E-02
   165 Broy./Diag. 0.10E+00    2.9     0.02628204       -75.5758592679  2.14E-02
   166 Broy./Diag. 0.10E+00    2.9     0.04166243       -75.5841606173 -8.30E-03
   167 Broy./Diag. 0.10E+00    2.9     0.04219244       -75.5817180192  2.44E-03
   168 Broy./Diag. 0.10E+00    3.0     0.04602292       -75.5716988169  1.00E-02
   169 Broy./Diag. 0.10E+00    2.9     0.05186819       -75.5537688872  1.79E-02
   170 Broy./Diag. 0.10E+00    2.9     0.05543112       -75.5791676543 -2.54E-02
   171 Broy./Diag. 0.10E+00    2.9     0.03811299       -75.5906911911 -1.15E-02
   172 Broy./Diag. 0.10E+00    2.9     0.06613991       -75.5698889181  2.08E-02
   173 Broy./Diag. 0.10E+00    2.9     0.08801956       -75.5380462098  3.18E-02
   174 Broy./Diag. 0.10E+00    2.9     0.11772759       -75.4746747805  6.34E-02
   175 Broy./Diag. 0.10E+00    2.9     0.10644193       -75.4307865326  4.39E-02
   176 Broy./Diag. 0.10E+00    2.9     0.07346669       -75.3902959857  4.05E-02
   177 Broy./Diag. 0.10E+00    2.9     0.06672234       -75.3344039200  5.59E-02
   178 Broy./Diag. 0.10E+00    2.9     0.07051375       -75.4316221722 -9.72E-02
   179 Broy./Diag. 0.10E+00    2.9     0.04577862       -75.5400915356 -1.08E-01
   180 Broy./Diag. 0.10E+00    2.9     0.01594897       -75.6039532170 -6.39E-02
   181 Broy./Diag. 0.10E+00    2.9     0.02008128       -75.6177538181 -1.38E-02
   182 Broy./Diag. 0.10E+00    2.8     0.06355950       -75.5252334801  9.25E-02
   183 Broy./Diag. 0.10E+00    2.9     0.11736696       -75.3320271066  1.93E-01
   184 Broy./Diag. 0.10E+00    2.9     0.12574527       -75.3083783538  2.36E-02
   185 Broy./Diag. 0.10E+00    2.8     0.12224737       -75.7234730778 -4.15E-01
   186 Broy./Diag. 0.10E+00    2.9     0.19942046       -75.7023241611  2.11E-02
   187 Broy./Diag. 0.10E+00    2.8     0.19079932       -75.6619722642  4.04E-02
   188 Broy./Diag. 0.10E+00    2.9     0.09550399       -75.6454359963  1.65E-02
   189 Broy./Diag. 0.10E+00    2.9     0.06704481       -75.6545498641 -9.11E-03
   190 Broy./Diag. 0.10E+00    2.9     0.03711089       -75.6690487380 -1.45E-02
   191 Broy./Diag. 0.10E+00    2.9     0.02724167       -75.6782292403 -9.18E-03
   192 Broy./Diag. 0.10E+00    2.9     0.03112332       -75.6872518637 -9.02E-03
   193 Broy./Diag. 0.10E+00    2.9     0.02287154       -75.6884965336 -1.24E-03
   194 Broy./Diag. 0.10E+00    2.9     0.03369316       -75.6992992013 -1.08E-02
   195 Broy./Diag. 0.10E+00    2.9     0.02886354       -75.6963665235  2.93E-03
   196 Broy./Diag. 0.10E+00    2.9     0.02735183       -75.6906409970  5.73E-03
   197 Broy./Diag. 0.10E+00    3.0     0.02813055       -75.6777846965  1.29E-02
   198 Broy./Diag. 0.10E+00    3.0     0.02984426       -75.6680466547  9.74E-03
   199 Broy./Diag. 0.10E+00    2.9     0.03044077       -75.6552260742  1.28E-02
   200 Broy./Diag. 0.10E+00    2.9     0.03142235       -75.6431201001  1.21E-02
   201 Broy./Diag. 0.10E+00    2.9     0.03947416       -75.6270306596  1.61E-02
   202 Broy./Diag. 0.10E+00    2.9     0.04899546       -75.6133280835  1.37E-02
   203 Broy./Diag. 0.10E+00    2.9     0.07323277       -75.5903356482  2.30E-02
   204 Broy./Diag. 0.10E+00    3.0     0.07224538       -75.5662332446  2.41E-02
   205 Broy./Diag. 0.10E+00    2.9     0.06861300       -75.5324951976  3.37E-02
   206 Broy./Diag. 0.10E+00    2.9     0.05420720       -75.5011576377  3.13E-02
   207 Broy./Diag. 0.10E+00    2.9     0.05948283       -75.4720029086  2.92E-02
   208 Broy./Diag. 0.10E+00    2.9     0.06348232       -75.4317521566  4.03E-02
   209 Broy./Diag. 0.10E+00    2.9     0.07326418       -75.3769656379  5.48E-02
   210 Broy./Diag. 0.10E+00    2.9     0.07276989       -75.3339533894  4.30E-02
   211 Broy./Diag. 0.10E+00    3.0     0.05591396       -75.3012796918  3.27E-02
   212 Broy./Diag. 0.10E+00    2.9     0.06666350       -75.2710042068  3.03E-02
   213 Broy./Diag. 0.10E+00    2.9     0.05943669       -75.2440680265  2.69E-02
   214 Broy./Diag. 0.10E+00    2.9     0.05031497       -75.2000811631  4.40E-02
   215 Broy./Diag. 0.10E+00    2.9     0.07937831       -75.2136909063 -1.36E-02
   216 Broy./Diag. 0.10E+00    2.9     0.03847349       -75.2658545735 -5.22E-02
   217 Broy./Diag. 0.10E+00    2.9     0.09487595       -75.1571105767  1.09E-01
   218 Broy./Diag. 0.10E+00    2.9     0.13870521       -75.2185115137 -6.14E-02
   219 Broy./Diag. 0.10E+00    2.9     0.06694383       -75.4210195643 -2.03E-01
   220 Broy./Diag. 0.10E+00    2.9     0.09474818       -75.5809778449 -1.60E-01
   221 Broy./Diag. 0.10E+00    2.9     0.19028418       -75.6455363028 -6.46E-02
   222 Broy./Diag. 0.10E+00    2.8     0.19874656       -75.5922454476  5.33E-02
   223 Broy./Diag. 0.10E+00    2.8     0.18431882       -75.6434705998 -5.12E-02
   224 Broy./Diag. 0.10E+00    2.8     0.10824943       -75.7074572294 -6.40E-02
   225 Broy./Diag. 0.10E+00    2.8     0.07248827       -75.7268292564 -1.94E-02
   226 Broy./Diag. 0.10E+00    2.8     0.06301296       -75.7512037139 -2.44E-02
   227 Broy./Diag. 0.10E+00    2.9     0.05094188       -75.7727913588 -2.16E-02
   228 Broy./Diag. 0.10E+00    2.9     0.04223905       -75.8036728260 -3.09E-02
   229 Broy./Diag. 0.10E+00    2.9     0.03233650       -75.8132312695 -9.56E-03
   230 Broy./Diag. 0.10E+00    2.9     0.03505637       -75.7886917939  2.45E-02
   231 Broy./Diag. 0.10E+00    2.9     0.05588468       -75.7380330907  5.07E-02
   232 Broy./Diag. 0.10E+00    2.9     0.03074315       -75.6984479101  3.96E-02
   233 Broy./Diag. 0.10E+00    2.9     0.03542274       -75.6531799573  4.53E-02
   234 Broy./Diag. 0.10E+00    3.0     0.06924345       -75.5697731820  8.34E-02
   235 Broy./Diag. 0.10E+00    3.0     0.07321733       -75.5513948642  1.84E-02
   236 Broy./Diag. 0.10E+00    2.9     0.08923343       -75.5307393771  2.07E-02
   237 Broy./Diag. 0.10E+00    2.9     0.12874053       -75.5540961138 -2.34E-02
   238 Broy./Diag. 0.10E+00    2.9     0.13555189       -75.5774104504 -2.33E-02
   239 Broy./Diag. 0.10E+00    2.9     0.07280553       -75.5914313297 -1.40E-02
   240 Broy./Diag. 0.10E+00    2.9     0.04821179       -75.6078712189 -1.64E-02
   241 Broy./Diag. 0.10E+00    2.9     0.03746817       -75.6109978698 -3.13E-03
   242 Broy./Diag. 0.10E+00    2.8     0.10406788       -75.5848067616  2.62E-02
   243 Broy./Diag. 0.10E+00    3.0     0.10217176       -75.5608588393  2.39E-02
   244 Broy./Diag. 0.10E+00    2.8     0.06095565       -75.5338273856  2.70E-02
   245 Broy./Diag. 0.10E+00    2.9     0.04994543       -75.5231412448  1.07E-02
   246 Broy./Diag. 0.10E+00    2.9     0.08597213       -75.5643511347 -4.12E-02
   247 Broy./Diag. 0.10E+00    2.9     0.03549156       -75.6244575705 -6.01E-02
   248 Broy./Diag. 0.10E+00    2.9     0.02276931       -75.6355318275 -1.11E-02
   249 Broy./Diag. 0.10E+00    2.9     0.02130975       -75.6289783104  6.55E-03
   250 Broy./Diag. 0.10E+00    2.9     0.04868827       -75.6237589549  5.22E-03
   251 Broy./Diag. 0.10E+00    2.9     0.05323197       -75.6235185044  2.40E-04
   252 Broy./Diag. 0.10E+00    2.9     0.04314766       -75.6196694280  3.85E-03
   253 Broy./Diag. 0.10E+00    2.9     0.04056727       -75.6147981976  4.87E-03
   254 Broy./Diag. 0.10E+00    2.9     0.04690847       -75.6105480661  4.25E-03
   255 Broy./Diag. 0.10E+00    2.9     0.04058336       -75.6021981087  8.35E-03
   256 Broy./Diag. 0.10E+00    2.9     0.03482823       -75.6133555263 -1.12E-02
   257 Broy./Diag. 0.10E+00    2.9     0.02462517       -75.5699323259  4.34E-02
   258 Broy./Diag. 0.10E+00    2.9     0.02540559       -75.5679106960  2.02E-03
   259 Broy./Diag. 0.10E+00    2.9     0.03302894       -75.5528130554  1.51E-02
   260 Broy./Diag. 0.10E+00    2.9     0.04229619       -75.5380560542  1.48E-02
   261 Broy./Diag. 0.10E+00    2.9     0.05801765       -75.5177455729  2.03E-02
   262 Broy./Diag. 0.10E+00    2.9     0.07528075       -75.4867882035  3.10E-02
   263 Broy./Diag. 0.10E+00    2.9     0.06958538       -75.4602916199  2.65E-02
   264 Broy./Diag. 0.10E+00    2.9     0.08602815       -75.4371212755  2.32E-02
   265 Broy./Diag. 0.10E+00    2.9     0.11772625       -75.4439004668 -6.78E-03
   266 Broy./Diag. 0.10E+00    2.9     0.06947300       -75.4247579058  1.91E-02
   267 Broy./Diag. 0.10E+00    3.0     0.07089340       -75.4318360182 -7.08E-03
   268 Broy./Diag. 0.10E+00    2.9     0.08860139       -75.4319078461 -7.18E-05
   269 Broy./Diag. 0.10E+00    2.9     0.14891819       -75.4766791542 -4.48E-02
   270 Broy./Diag. 0.10E+00    2.9     0.23818204       -75.5901211098 -1.13E-01
   271 Broy./Diag. 0.10E+00    2.9     0.12163426       -75.5879745861  2.15E-03
   272 Broy./Diag. 0.10E+00    2.9     0.28055071       -75.5308052125  5.72E-02
   273 Broy./Diag. 0.10E+00    2.8     0.29520779       -75.5367990543 -5.99E-03
   274 Broy./Diag. 0.10E+00    2.9     0.07798798       -75.5635202891 -2.67E-02
   275 Broy./Diag. 0.10E+00    3.0     0.06285390       -75.6053809467 -4.19E-02
   276 Broy./Diag. 0.10E+00    2.9     0.05253423       -75.6379494472 -3.26E-02
   277 Broy./Diag. 0.10E+00    2.9     0.04855792       -75.6435762140 -5.63E-03
   278 Broy./Diag. 0.10E+00    3.0     0.03682135       -75.6355439879  8.03E-03
   279 Broy./Diag. 0.10E+00    2.9     0.02391458       -75.6351306507  4.13E-04
   280 Broy./Diag. 0.10E+00    2.9     0.02803285       -75.6370557222 -1.93E-03
   281 Broy./Diag. 0.10E+00    2.9     0.05879474       -75.6460790370 -9.02E-03
   282 Broy./Diag. 0.10E+00    2.9     0.03135139       -75.6289646354  1.71E-02
   283 Broy./Diag. 0.10E+00    2.9     0.04655013       -75.6136514831  1.53E-02
   284 Broy./Diag. 0.10E+00    2.9     0.06196510       -75.5916427918  2.20E-02
   285 Broy./Diag. 0.10E+00    2.9     0.07402639       -75.5677590343  2.39E-02
   286 Broy./Diag. 0.10E+00    2.9     0.10412505       -75.5384098544  2.93E-02
   287 Broy./Diag. 0.10E+00    3.0     0.06111665       -75.5256073857  1.28E-02
   288 Broy./Diag. 0.10E+00    3.0     0.07105986       -75.4929343464  3.27E-02
   289 Broy./Diag. 0.10E+00    2.9     0.06785489       -75.4469429677  4.60E-02
   290 Broy./Diag. 0.10E+00    2.9     0.05296691       -75.4309300814  1.60E-02
   291 Broy./Diag. 0.10E+00    2.9     0.05160950       -75.4092691200  2.17E-02
   292 Broy./Diag. 0.10E+00    2.9     0.05842865       -75.3722242112  3.70E-02
   293 Broy./Diag. 0.10E+00    2.9     0.05818843       -75.3639317302  8.29E-03
   294 Broy./Diag. 0.10E+00    2.9     0.05519661       -75.3903833926 -2.65E-02
   295 Broy./Diag. 0.10E+00    2.9     0.05599973       -75.4616769369 -7.13E-02
   296 Broy./Diag. 0.10E+00    2.9     0.07568273       -75.5697168968 -1.08E-01
   297 Broy./Diag. 0.10E+00    3.0     0.15265078       -75.6844592138 -1.15E-01
   298 Broy./Diag. 0.10E+00    3.0     0.44738759       -75.8101825064 -1.26E-01
   299 Broy./Diag. 0.10E+00    2.9     0.15172483       -75.9330323861 -1.23E-01
   300 Broy./Diag. 0.10E+00    2.9     0.05838765       -75.8917709080  4.13E-02
   301 Broy./Diag. 0.10E+00    2.9     0.03181651       -75.7549348421  1.37E-01
   302 Broy./Diag. 0.10E+00    3.0     0.02383097       -75.7202138794  3.47E-02
   303 Broy./Diag. 0.10E+00    2.9     0.02340554       -75.7085955708  1.16E-02
   304 Broy./Diag. 0.10E+00    2.9     0.03859173       -75.7417255594 -3.31E-02
   305 Broy./Diag. 0.10E+00    2.9     0.03508383       -75.7949647296 -5.32E-02
   306 Broy./Diag. 0.10E+00    2.9     0.02318748       -75.7388665677  5.61E-02
   307 Broy./Diag. 0.10E+00    2.9     0.03786039       -75.6663296915  7.25E-02
   308 Broy./Diag. 0.10E+00    2.9     0.01702381       -75.6643920593  1.94E-03
   309 Broy./Diag. 0.10E+00    2.9     0.05757277       -75.6860314042 -2.16E-02
   310 Broy./Diag. 0.10E+00    2.9     0.04262135       -75.6830585372  2.97E-03
   311 Broy./Diag. 0.10E+00    2.9     0.04248879       -75.6906961977 -7.64E-03
   312 Broy./Diag. 0.10E+00    2.9     0.03004921       -75.6885323911  2.16E-03
[...]
 *    |             please set the keyword IGNORE_CONVERGENCE_FAILURE.         *
 *  O/|                                                                        *
 * /| |                                                                        *
 * / \                                                            qs_scf.F:611 *
 *******************************************************************************


 ===== Routine Calling Stack ===== 

            3 scf_env_do_scf
            2 qs_energies
            1 CP2K

 *******************************************************************************
 *   ___                                                                       *
 *  /   \                                                                      *
 * [ABORT]                                                                     *
 *  \___/     SCF run NOT converged. To continue the calculation regardless,   *
 *    |             please set the keyword IGNORE_CONVERGENCE_FAILURE.         *
 *  O/|                                                                        *
 * /| |                                                                        *
 * / \                                                            qs_scf.F:611 *
 *******************************************************************************


 ===== Routine Calling Stack ===== 

            3 scf_env_do_scf
            2 qs_energies
            1 CP2K

 *******************************************************************************
 *   ___                                                                       *
 *  /   \                                                                      *
 * [ABORT]                                                                     *
 *  \___/     SCF run NOT converged. To continue the calculation regardless,   *
 *    |             please set the keyword IGNORE_CONVERGENCE_FAILURE.         *
 *  O/|                                                                        *
 * /| |                                                                        *
 * / \                                                            qs_scf.F:611 *
 *******************************************************************************


 ===== Routine Calling Stack ===== 

            3 scf_env_do_scf
            2 qs_energies
            1 CP2K

 *******************************************************************************
 *   ___                                                                       *
 *  /   \                                                                      *
 * [ABORT]                                                                     *
 *  \___/     SCF run NOT converged. To continue the calculation regardless,   *
 *    |             please set the keyword IGNORE_CONVERGENCE_FAILURE.         *
 *  O/|                                                                        *
 * /| |                                                                        *
 * / \                                                            qs_scf.F:611 *
 *******************************************************************************


 ===== Routine Calling Stack ===== 

            3 scf_env_do_scf
            2 qs_energies
            1 CP2K

 *******************************************************************************
 *   ___                                                                       *
 *  /   \                                                                      *
 * [ABORT]                                                                     *
 *  \___/     SCF run NOT converged. To continue the calculation regardless,   *
 *    |             please set the keyword IGNORE_CONVERGENCE_FAILURE.         *
 *  O/|                                                                        *
 * /| |                                                                        *
 * / \                                                            qs_scf.F:611 *
 *******************************************************************************


 ===== Routine Calling Stack ===== 

            3 scf_env_do_scf
            2 qs_energies
            1 CP2K

 *******************************************************************************
 *   ___                                                                       *
 *  /   \                                                                      *
 * [ABORT]                                                                     *
 *  \___/     SCF run NOT converged. To continue the calculation regardless,   *
 *    |             please set the keyword IGNORE_CONVERGENCE_FAILURE.         *
 *  O/|                                                                        *
 * /| |                                                                        *
 * / \                                                            qs_scf.F:611 *
 *******************************************************************************


 ===== Routine Calling Stack ===== 

            3 scf_env_do_scf
            2 qs_energies
            1 CP2K

 *******************************************************************************
 *   ___                                                                       *
 *  /   \                                                                      *
 * [ABORT]                                                                     *
 *  \___/     SCF run NOT converged. To continue the calculation regardless,   *
 *    |             please set the keyword IGNORE_CONVERGENCE_FAILURE.         *
 *  O/|                                                                        *
 * /| |                                                                        *
 * / \                                                            qs_scf.F:611 *
 *******************************************************************************


 ===== Routine Calling Stack ===== 

            3 scf_env_do_scf
            2 qs_energies
            1 CP2K

 *******************************************************************************
 *   ___                                                                       *
 *  /   \                                                                      *
 * [ABORT]                                                                     *
 *  \___/     SCF run NOT converged. To continue the calculation regardless,   *
 *    |             please set the keyword IGNORE_CONVERGENCE_FAILURE.         *
 *  O/|                                                                        *
 * /| |                                                                        *
 * / \                                                            qs_scf.F:611 *
 *******************************************************************************


 ===== Routine Calling Stack ===== 

            3 scf_env_do_scf
            2 qs_energies
            1 CP2K

 *******************************************************************************
 *   ___                                                                       *
 *  /   \                                                                      *
 * [ABORT]                                                                     *
 *  \___/     SCF run NOT converged. To continue the calculation regardless,   *
 *    |             please set the keyword IGNORE_CONVERGENCE_FAILURE.         *
 *  O/|                                                                        *
 * /| |                                                                        *
 * / \                                                            qs_scf.F:611 *
 *******************************************************************************


 ===== Routine Calling Stack ===== 

            3 scf_env_do_scf
            2 qs_energies
            1 CP2K

 *******************************************************************************
 *   ___                                                                       *
 *  /   \                                                                      *
 * [ABORT]                                                                     *
 *  \___/     SCF run NOT converged. To continue the calculation regardless,   *
 *    |             please set the keyword IGNORE_CONVERGENCE_FAILURE.         *
 *  O/|                                                                        *
 * /| |                                                                        *
 * / \                                                            qs_scf.F:611 *
 *******************************************************************************


 ===== Routine Calling Stack ===== 

            3 scf_env_do_scf
            2 qs_energies
            1 CP2K

 *******************************************************************************
 *   ___                                                                       *
 *  /   \                                                                      *
 * [ABORT]                                                                     *
 *  \___/     SCF run NOT converged. To continue the calculation regardless,   *
 *    |             please set the keyword IGNORE_CONVERGENCE_FAILURE.         *
 *  O/|                                                                        *
 * /| |                                                                        *
 * / \                                                            qs_scf.F:611 *
 *******************************************************************************


 ===== Routine Calling Stack ===== 

            3 scf_env_do_scf
            2 qs_energies
            1 CP2K

 *******************************************************************************
 *   ___                                                                       *
 *  /   \                                                                      *
 * [ABORT]                                                                     *
 *  \___/     SCF run NOT converged. To continue the calculation regardless,   *
 *    |             please set the keyword IGNORE_CONVERGENCE_FAILURE.         *
 *  O/|                                                                        *
 * /| |                                                                        *
 * / \                                                            qs_scf.F:611 *
 *******************************************************************************


 ===== Routine Calling Stack ===== 

            3 scf_env_do_scf
            2 qs_energies
            1 CP2K

 *******************************************************************************
 *   ___                                                                       *
 *  /   \                                                                      *
 * [ABORT]                                                                     *
 *  \___/     SCF run NOT converged. To continue the calculation regardless,   *
 *    |             please set the keyword IGNORE_CONVERGENCE_FAILURE.         *
 *  O/|                                                                        *
 * /| |                                                                        *
 * / \                                                            qs_scf.F:611 *
 *******************************************************************************


 ===== Routine Calling Stack ===== 

            3 scf_env_do_scf
            2 qs_energies
            1 CP2K

 *******************************************************************************
 *   ___                                                                       *
 *  /   \                                                                      *
 * [ABORT]                                                                     *
 *  \___/     SCF run NOT converged. To continue the calculation regardless,   *
 *    |             please set the keyword IGNORE_CONVERGENCE_FAILURE.         *
 *  O/|                                                                        *
 * /| |                                                                        *
 * / \                                                            qs_scf.F:611 *
 *******************************************************************************


 ===== Routine Calling Stack ===== 

            3 scf_env_do_scf
            2 qs_energies
            1 CP2K

 *******************************************************************************
 *   ___                                                                       *
 *  /   \                                                                      *
 * [ABORT]                                                                     *
 *  \___/     SCF run NOT converged. To continue the calculation regardless,   *
 *    |             please set the keyword IGNORE_CONVERGENCE_FAILURE.         *
 *  O/|                                                                        *
 * /| |                                                                        *
 * / \                                                            qs_scf.F:611 *
 *******************************************************************************


 ===== Routine Calling Stack ===== 

            3 scf_env_do_scf
            2 qs_energies
            1 CP2K

 *******************************************************************************
 *   ___                                                                       *
 *  /   \                                                                      *
 * [ABORT]                                                                     *
 *  \___/     SCF run NOT converged. To continue the calculation regardless,   *
 *    |             please set the keyword IGNORE_CONVERGENCE_FAILURE.         *
 *  O/|                                                                        *
 * /| |                                                                        *
 * / \                                                            qs_scf.F:611 *
 *******************************************************************************


 ===== Routine Calling Stack ===== 

            3 scf_env_do_scf
            2 qs_energies
            1 CP2K

 *******************************************************************************
 *   ___                                                                       *
 *  /   \                                                                      *
 * [ABORT]                                                                     *
 *  \___/     SCF run NOT converged. To continue the calculation regardless,   *
 *    |             please set the keyword IGNORE_CONVERGENCE_FAILURE.         *
 *  O/|                                                                        *
 * /| |                                                                        *
 * / \                                                            qs_scf.F:611 *
 *******************************************************************************


 ===== Routine Calling Stack ===== 

            3 scf_env_do_scf
            2 qs_energies
            1 CP2K

 *******************************************************************************
 *   ___                                                                       *
 *  /   \                                                                      *
 * [ABORT]                                                                     *
 *  \___/     SCF run NOT converged. To continue the calculation regardless,   *
 *    |             please set the keyword IGNORE_CONVERGENCE_FAILURE.         *
 *  O/|                                                                        *
 * /| |                                                                        *
 * / \                                                            qs_scf.F:611 *
 *******************************************************************************


 ===== Routine Calling Stack ===== 

            3 scf_env_do_scf
            2 qs_energies
            1 CP2K

 *******************************************************************************
 *   ___                                                                       *
 *  /   \                                                                      *
 * [ABORT]                                                                     *
 *  \___/     SCF run NOT converged. To continue the calculation regardless,   *
 *    |             please set the keyword IGNORE_CONVERGENCE_FAILURE.         *
 *  O/|                                                                        *
 * /| |                                                                        *
 * / \                                                            qs_scf.F:611 *
 *******************************************************************************


 ===== Routine Calling Stack ===== 

            3 scf_env_do_scf
            2 qs_energies
            1 CP2K

 *******************************************************************************
 *   ___                                                                       *
 *  /   \                                                                      *
 * [ABORT]                                                                     *
 *  \___/     SCF run NOT converged. To continue the calculation regardless,   *
 *    |             please set the keyword IGNORE_CONVERGENCE_FAILURE.         *
 *  O/|                                                                        *
 * /| |                                                                        *
 * / \                                                            qs_scf.F:611 *
 *******************************************************************************


 ===== Routine Calling Stack ===== 

            3 scf_env_do_scf
            2 qs_energies
            1 CP2K

 *******************************************************************************
 *   ___                                                                       *
 *  /   \                                                                      *
 * [ABORT]                                                                     *
 *  \___/     SCF run NOT converged. To continue the calculation regardless,   *
 *    |             please set the keyword IGNORE_CONVERGENCE_FAILURE.         *
 *  O/|                                                                        *
 * /| |                                                                        *
 * / \                                                            qs_scf.F:611 *
 *******************************************************************************


 ===== Routine Calling Stack ===== 

            3 scf_env_do_scf
            2 qs_energies
            1 CP2K

 *******************************************************************************
 *   ___                                                                       *
 *  /   \                                                                      *
 * [ABORT]                                                                     *
 *  \___/     SCF run NOT converged. To continue the calculation regardless,   *
 *    |             please set the keyword IGNORE_CONVERGENCE_FAILURE.         *
 *  O/|                                                                        *
 * /| |                                                                        *
 * / \                                                            qs_scf.F:611 *
 *******************************************************************************


 ===== Routine Calling Stack ===== 

            3 scf_env_do_scf
            2 qs_energies
            1 CP2K
