 DBCSR| CPU Multiplication driver                                           BLAS (U)
 DBCSR| Multrec recursion limit                                              512 (U)
 DBCSR| Multiplication stack size                                           1000 (D)
 DBCSR| Maximum elements for images                                    UNLIMITED (U)
 DBCSR| Multiplicative factor virtual images                                   1 (U)
 DBCSR| Use multiplication densification                                       T (D)
 DBCSR| Multiplication size stacks                                             3 (U)
 DBCSR| Use memory pool for CPU allocation                                     F (U)
 DBCSR| Number of 3D layers                                               SINGLE (U)
 DBCSR| Use MPI memory allocation                                              F (U)
 DBCSR| Use RMA algorithm                                                      F (U)
 DBCSR| Use Communication thread                                               T (U)
 DBCSR| Communication thread load                                             75 (D)
 DBCSR| MPI: My process id                                                     0
 DBCSR| MPI: Number of processes                                              24
 DBCSR| OMP: Current number of threads                                         4
 DBCSR| OMP: Max number of threads                                             4
 DBCSR| Split modifier for TAS multiplication algorithm                  1.0E+00 (U)


  **** **** ******  **  PROGRAM STARTED AT               2025-03-08 02:42:10.555
 ***** ** ***  *** **   PROGRAM STARTED ON                          i02r09c01s09
 **    ****   ******    PROGRAM STARTED BY                               di38fab
 ***** **    ** ** **   PROGRAM PROCESS ID                               1449703
  **** **  *******  **  PROGRAM STARTED IN /hppfs/scratch/04/di38fab/05_MOL/W4-1
                                           1+ALK/bn3pi/SZV

 CP2K| version string:                 CP2K version 2025.1 (Development Version)
 CP2K| source code revision number:                                  git:47877ba
 CP2K| cp2kflags: omp libint fftw3 libxc parallel scalapack max_contr=4         
 CP2K| is freely available from                            https://www.cp2k.org/
 CP2K| Program compiled at                          Thu Feb 20 16:00:34 CET 2025
 CP2K| Program compiled on                                               login04
 CP2K| Program compiled for                                        Supermuc-foss
 CP2K| Data directory path          /hppfs/work/pn36zo/di38fab/newcp2k/cp2k/data
 CP2K| Input file name                                                    GW.inp

 GLOBAL| Force Environment number                                              1
 GLOBAL| Basis set file name            /hppfs/scratch/04/di38fab/04_TMD/BASIS_A
 GLOBAL| Potential file name            /hppfs/work/pn36zo/di38fab/cp2k/data/ALL
 GLOBAL| MM Potential file name                                     MM_POTENTIAL
 GLOBAL| Coordinate file name                                      __STD_INPUT__
 GLOBAL| Method name                                                        CP2K
 GLOBAL| Project name                                                       MoS2
 GLOBAL| Run type                                                         ENERGY
 GLOBAL| FFT library                                                       FFTW3
 GLOBAL| Diagonalization library                                       ScaLAPACK
 GLOBAL| DGEMM library                                                      BLAS
 GLOBAL| Orthonormality check for eigenvectors                          DISABLED
 GLOBAL| Matrix multiplication library                                 ScaLAPACK
 GLOBAL| All-to-all communication in single precision                          F
 GLOBAL| FFTs using library dependent lengths                                  F
 GLOBAL| Grid backend                                                       AUTO
 GLOBAL| Global print level                                               MEDIUM
 GLOBAL| MPI I/O enabled                                                       T
 GLOBAL| Total number of message passing processes                            24
 GLOBAL| Number of threads for this process                                    4
 GLOBAL| This output is from process                                           0
 GLOBAL| OpenMP stack size per thread (OMP_STACKSIZE)                    default
 GLOBAL| CPU model name             Intel(R) Xeon(R) Platinum 8174 CPU @ 3.10GHz

 MEMORY| system memory details [Kb]
 MEMORY|                        rank 0           min           max       average
 MEMORY| MemTotal             98436660      98436660      98436664      98436662
 MEMORY| MemFree              84092168      84092168      84365540      84228854
 MEMORY| Buffers                     0             0             0             0
 MEMORY| Cached                2395956       2395956       2398532       2397244
 MEMORY| Slab                  1220868       1217504       1220868       1219186
 MEMORY| SReclaimable           264160        264160        269668        266914
 MEMORY| MemLikelyFree        86752284      86752284      87033740      86893012


 *** Fundamental physical constants (SI units) ***

 *** Literature: B. J. Mohr and B. N. Taylor,
 ***             CODATA recommended values of the fundamental physical
 ***             constants: 2006, Web Version 5.1
 ***             http://physics.nist.gov/constants

 Speed of light in vacuum [m/s]                             2.99792458000000E+08
 Magnetic constant or permeability of vacuum [N/A**2]       1.25663706143592E-06
 Electric constant or permittivity of vacuum [F/m]          8.85418781762039E-12
 Planck constant (h) [J*s]                                  6.62606896000000E-34
 Planck constant (h-bar) [J*s]                              1.05457162825177E-34
 Elementary charge [C]                                      1.60217648700000E-19
 Electron mass [kg]                                         9.10938215000000E-31
 Electron g factor [ ]                                     -2.00231930436220E+00
 Proton mass [kg]                                           1.67262163700000E-27
 Fine-structure constant                                    7.29735253760000E-03
 Rydberg constant [1/m]                                     1.09737315685270E+07
 Avogadro constant [1/mol]                                  6.02214179000000E+23
 Boltzmann constant [J/K]                                   1.38065040000000E-23
 Atomic mass unit [kg]                                      1.66053878200000E-27
 Bohr radius [m]                                            5.29177208590000E-11

 *** Conversion factors ***

 [u] -> [a.u.]                                              1.82288848426455E+03
 [Angstrom] -> [Bohr] = [a.u.]                              1.88972613288564E+00
 [a.u.] = [Bohr] -> [Angstrom]                              5.29177208590000E-01
 [a.u.] -> [s]                                              2.41888432650478E-17
 [a.u.] -> [fs]                                             2.41888432650478E-02
 [a.u.] -> [J]                                              4.35974393937059E-18
 [a.u.] -> [N]                                              8.23872205491840E-08
 [a.u.] -> [K]                                              3.15774647902944E+05
 [a.u.] -> [kJ/mol]                                         2.62549961709828E+03
 [a.u.] -> [kcal/mol]                                       6.27509468713739E+02
 [a.u.] -> [Pa]                                             2.94210107994716E+13
 [a.u.] -> [bar]                                            2.94210107994716E+08
 [a.u.] -> [atm]                                            2.90362800883016E+08
 [a.u.] -> [eV]                                             2.72113838565563E+01
 [a.u.] -> [Hz]                                             6.57968392072181E+15
 [a.u.] -> [1/cm] (wave numbers)                            2.19474631370540E+05
 [a.u./Bohr**2] -> [1/cm]                                   5.14048714338585E+03
 

 CELL_TOP| Volume [angstrom^3]:                                     27000.000000
 CELL_TOP| Vector a [angstrom    30.000     0.000     0.000   |a| =    30.000000
 CELL_TOP| Vector b [angstrom     0.000    30.000     0.000   |b| =    30.000000
 CELL_TOP| Vector c [angstrom     0.000     0.000    30.000   |c| =    30.000000
 CELL_TOP| Angle (b,c), alpha [degree]:                                90.000000
 CELL_TOP| Angle (a,c), beta  [degree]:                                90.000000
 CELL_TOP| Angle (a,b), gamma [degree]:                                90.000000
 CELL_TOP| Numerically orthorhombic:                                         YES
 CELL_TOP| Periodicity                                                      NONE

 GENERATE|  Preliminary Number of Bonds generated:                             0
 GENERATE|  Achieved consistency in connectivity generation.

 CELL| Volume [angstrom^3]:                                         27000.000000
 CELL| Vector a [angstrom]:      30.000     0.000     0.000   |a| =    30.000000
 CELL| Vector b [angstrom]:       0.000    30.000     0.000   |b| =    30.000000
 CELL| Vector c [angstrom]:       0.000     0.000    30.000   |c| =    30.000000
 CELL| Angle (b,c), alpha [degree]:                                    90.000000
 CELL| Angle (a,c), beta  [degree]:                                    90.000000
 CELL| Angle (a,b), gamma [degree]:                                    90.000000
 CELL| Numerically orthorhombic:                                             YES
 CELL| Periodicity                                                          NONE

 CELL_REF| Volume [angstrom^3]:                                     27000.000000
 CELL_REF| Vector a [angstrom    30.000     0.000     0.000   |a| =    30.000000
 CELL_REF| Vector b [angstrom     0.000    30.000     0.000   |b| =    30.000000
 CELL_REF| Vector c [angstrom     0.000     0.000    30.000   |c| =    30.000000
 CELL_REF| Angle (b,c), alpha [degree]:                                90.000000
 CELL_REF| Angle (a,c), beta  [degree]:                                90.000000
 CELL_REF| Angle (a,b), gamma [degree]:                                90.000000
 CELL_REF| Numerically orthorhombic:                                         YES
 CELL_REF| Periodicity                                                      NONE

 *******************************************************************************
 *******************************************************************************
 **                                                                           **
 **     #####                         ##              ##                      **
 **    ##   ##            ##          ##              ##                      **
 **   ##     ##                       ##            ######                    **
 **   ##     ##  ##   ##  ##   #####  ##  ##   ####   ##    #####    #####    **
 **   ##     ##  ##   ##  ##  ##      ## ##   ##      ##   ##   ##  ##   ##   **
 **   ##  ## ##  ##   ##  ##  ##      ####     ###    ##   ######   ######    **
 **    ##  ###   ##   ##  ##  ##      ## ##      ##   ##   ##       ##        **
 **     #######   #####   ##   #####  ##  ##  ####    ##    #####   ##        **
 **           ##                                                    ##        **
 **                                                                           **
 **                                                ... make the atoms dance   **
 **                                                                           **
 **            Copyright (C) by CP2K developers group (2000-2025)             **
 **                      J. Chem. Phys. 152, 194103 (2020)                    **
 **                                                                           **
 *******************************************************************************

 DFT| Spin restricted Kohn-Sham (RKS) calculation                            RKS
 DFT| Multiplicity                                                             1
 DFT| Number of spin states                                                    1
 DFT| Charge                                                                   0
 DFT| Self-interaction correction (SIC)                                       NO
 DFT| Cutoffs: density                                              1.000000E-10
 DFT|          gradient                                             1.000000E-10
 DFT|          tau                                                  1.000000E-10
 DFT|          cutoff_smoothing_range                               0.000000E+00
 DFT| XC density smoothing                                                  NONE
 DFT| XC derivatives                                                          PW

 FUNCTIONAL| PBE:
 FUNCTIONAL| J.P.Perdew, K.Burke, M.Ernzerhof, Phys. Rev. Letter, vol. 77, n 18,
 FUNCTIONAL|  pp. 3865-3868, (1996)sx=0.750sc=1.000{spin unpolarized}           


 QS| Method:                                                                GAPW
 QS| Density plane wave grid type                        NON-SPHERICAL FULLSPACE
 QS| Number of grid levels:                                                    4
 QS| Density cutoff [a.u.]:                                                250.0
 QS| Multi grid cutoff [a.u.]: 1) grid level                               250.0
 QS|                           2) grid level                                83.3
 QS|                           3) grid level                                27.8
 QS|                           4) grid level                                 9.3
 QS| Grid level progression factor:                                          3.0
 QS| Relative density cutoff [a.u.]:                                        50.0
 QS| Interaction thresholds: eps_pgf_orb:                                1.0E-12
 QS|                         eps_filter_matrix:                          0.0E+00
 QS|                         eps_core_charge:                            1.0E-14
 QS|                         eps_rho_gspace:                             1.0E-12
 QS|                         eps_rho_rspace:                             1.0E-12
 QS|                         eps_gvg_rspace:                             1.0E-06
 QS|                         eps_ppl:                                    1.0E-02
 QS|                         eps_ppnl:                                   1.0E-08
 QS| GAPW|      One center basis from orbital basis primitives
 QS| GAPW|                   eps_fit:                                    1.0E-04
 QS| GAPW|                   eps_iso:                                    1.0E-12
 QS| GAPW|                   eps_svd:                                    1.0E-08
 QS| GAPW|                   eps_cpc:                                    1.0E-12
 QS| GAPW|   atom-r-grid: quadrature:                                     GC_LOG
 QS| GAPW|      atom-s-grid:  max l :                                          4
 QS| GAPW|      max_l_rho0 :                                                   2


 ATOMIC KIND INFORMATION

  1. Atomic kind: B                                     Number of atoms:       1

     Orbital Basis Set                                         aug-SZV-MOLOPT-ae

       Number of orbital shell sets:                                           2
       Number of orbital shells:                                               6
       Number of primitive Cartesian functions:                               13
       Number of Cartesian basis functions:                                   15
       Number of spherical basis functions:                                   14
       Norm type:                                                              2

       Normalised Cartesian orbitals:

                        Set   Shell   Orbital            Exponent    Coefficient

                          1       1    1s                0.109280       0.032606
                                                         0.155613       0.000000
                                                         0.238409       0.144712
                                                         0.548949       0.113742
                                                         1.426820      -0.031435
                                                         4.590809      -0.105038
                                                        23.194561      -0.099829

                          1       2    2s                0.109280      -0.049098
                                                         0.155613      -0.119813
                                                         0.238409      -0.025283
                                                         0.548949       0.056653
                                                         1.426820       0.132404
                                                         4.590809       0.000000
                                                        23.194561       0.000000

                          1       3    2px               0.109280       0.009109
                                                         0.155613       0.000000
                                                         0.238409       0.101125
                                                         0.548949       0.281559
                                                         1.426820       0.386539
                                                         4.590809       0.360915
                                                        23.194561       0.272788
                          1       3    2py               0.109280       0.009109
                                                         0.155613       0.000000
                                                         0.238409       0.101125
                                                         0.548949       0.281559
                                                         1.426820       0.386539
                                                         4.590809       0.360915
                                                        23.194561       0.272788
                          1       3    2pz               0.109280       0.009109
                                                         0.155613       0.000000
                                                         0.238409       0.101125
                                                         0.548949       0.281559
                                                         1.426820       0.386539
                                                         4.590809       0.360915
                                                        23.194561       0.272788

                          1       4    3px               0.109280       0.062233
                                                         0.155613       0.035668
                                                         0.238409       0.015304
                                                         0.548949      -0.003054
                                                         1.426820       0.021875
                                                         4.590809       0.000000
                                                        23.194561       0.000000
                          1       4    3py               0.109280       0.062233
                                                         0.155613       0.035668
                                                         0.238409       0.015304
                                                         0.548949      -0.003054
                                                         1.426820       0.021875
                                                         4.590809       0.000000
                                                        23.194561       0.000000
                          1       4    3pz               0.109280       0.062233
                                                         0.155613       0.035668
                                                         0.238409       0.015304
                                                         0.548949      -0.003054
                                                         1.426820       0.021875
                                                         4.590809       0.000000
                                                        23.194561       0.000000

                          1       5    3dx2              0.109280       0.000986
                                                         0.155613       0.002022
                                                         0.238409       0.109458
                                                         0.548949       0.095099
                                                         1.426820       0.028232
                                                         4.590809       0.000000
                                                        23.194561       0.000000
                          1       5    3dxy              0.109280       0.001708
                                                         0.155613       0.003503
                                                         0.238409       0.189586
                                                         0.548949       0.164717
                                                         1.426820       0.048900
                                                         4.590809       0.000000
                                                        23.194561       0.000000
                          1       5    3dxz              0.109280       0.001708
                                                         0.155613       0.003503
                                                         0.238409       0.189586
                                                         0.548949       0.164717
                                                         1.426820       0.048900
                                                         4.590809       0.000000
                                                        23.194561       0.000000
                          1       5    3dy2              0.109280       0.000986
                                                         0.155613       0.002022
                                                         0.238409       0.109458
                                                         0.548949       0.095099
                                                         1.426820       0.028232
                                                         4.590809       0.000000
                                                        23.194561       0.000000
                          1       5    3dyz              0.109280       0.001708
                                                         0.155613       0.003503
                                                         0.238409       0.189586
                                                         0.548949       0.164717
                                                         1.426820       0.048900
                                                         4.590809       0.000000
                                                        23.194561       0.000000
                          1       5    3dz2              0.109280       0.000986
                                                         0.155613       0.002022
                                                         0.238409       0.109458
                                                         0.548949       0.095099
                                                         1.426820       0.028232
                                                         4.590809       0.000000
                                                        23.194561       0.000000

                          2       1    1s              506.011837       0.696781
                                                        92.776716       1.051665
                                                        25.955582       1.381280
                                                         8.916443       1.362748
                                                         3.462516       0.753460
                                                         1.426055       0.121219

     RI Auxiliary Basis Set             RI_aug-SZV-MOLOPT-ae_N_RI_035_s_p_d_f_g_

       Number of orbital shell sets:                                          13
       Number of orbital shells:                                              13
       Number of primitive Cartesian functions:                               13
       Number of Cartesian basis functions:                                   40
       Number of spherical basis functions:                                   35
       Norm type:                                                              2

       Normalised Cartesian orbitals:

                        Set   Shell   Orbital            Exponent    Coefficient

                          1       1    7px               0.266783       0.273299
                          1       1    7py               0.266783       0.273299
                          1       1    7pz               0.266783       0.273299

                          2       1    1s                0.279559       0.274009

                          3       1   11dx2              0.438811       0.389399
                          3       1   11dxy              0.438811       0.674459
                          3       1   11dxz              0.438811       0.674459
                          3       1   11dy2              0.438811       0.389399
                          3       1   11dyz              0.438811       0.674459
                          3       1   11dz2              0.438811       0.389399

                          4       1   13fx3              0.524510       0.344667
                          4       1   13fx2y             0.524510       0.770700
                          4       1   13fx2z             0.524510       0.770700
                          4       1   13fxy2             0.524510       0.770700
                          4       1   13fxyz             0.524510       1.334891
                          4       1   13fxz2             0.524510       0.770700
                          4       1   13fy3              0.524510       0.344667
                          4       1   13fy2z             0.524510       0.770700
                          4       1   13fyz2             0.524510       0.770700
                          4       1   13fz3              0.524510       0.344667

                          5       1    2s                0.649053       0.515371

                          6       1    8px               0.700602       0.913649
                          6       1    8py               0.700602       0.913649
                          6       1    8pz               0.700602       0.913649

                          7       1    3s                1.364167       0.899624

                          8       1   12dx2              1.905484       5.086498
                          8       1   12dxy              1.905484       8.810073
                          8       1   12dxz              1.905484       8.810073
                          8       1   12dy2              1.905484       5.086498
                          8       1   12dyz              1.905484       8.810073
                          8       1   12dz2              1.905484       5.086498

                          9       1    9px               2.433823       4.333127
                          9       1    9py               2.433823       4.333127
                          9       1    9pz               2.433823       4.333127

                         10       1    4s                4.732710       2.286875

                         11       1   10px              11.930396      31.605210
                         11       1   10py              11.930396      31.605210
                         11       1   10pz              11.930396      31.605210

                         12       1    5s               15.386625       5.536912

                         13       1    6s               46.757872      12.743865

       Atomic covalent radius [Angstrom]:                                  0.820

       Atomic van der Waals radius [Angstrom]:                             1.920

     The atoms of this atomic kind are PAW atoms (GAPW):
       Hard Gaussian function radius:                                      1.512
       Rho0 radius:                                                        1.512
       Maximum GTO radius used for PAW projector construction:            24.566

     GAPW Soft Basis Set                                  aug-SZV-MOLOPT-ae_soft

       Number of orbital shell sets:                                           2
       Number of orbital shells:                                               6
       Number of primitive Cartesian functions:                                7
       Number of Cartesian basis functions:                                   15
       Number of spherical basis functions:                                   14
       Norm type:                                                              2

       Normalised Cartesian orbitals:

                        Set   Shell   Orbital            Exponent    Coefficient

                          1       1    1s                0.109280       0.032606
                                                         0.155613       0.000000
                                                         0.238409       0.144712
                                                         0.548949       0.113742
                                                         1.426820      -0.031435

                          1       2    2s                0.109280      -0.049098
                                                         0.155613      -0.119813
                                                         0.238409      -0.025283
                                                         0.548949       0.056653
                                                         1.426820       0.132404

                          1       3    2px               0.109280       0.009109
                                                         0.155613       0.000000
                                                         0.238409       0.101125
                                                         0.548949       0.281559
                                                         1.426820       0.386539
                          1       3    2py               0.109280       0.009109
                                                         0.155613       0.000000
                                                         0.238409       0.101125
                                                         0.548949       0.281559
                                                         1.426820       0.386539
                          1       3    2pz               0.109280       0.009109
                                                         0.155613       0.000000
                                                         0.238409       0.101125
                                                         0.548949       0.281559
                                                         1.426820       0.386539

                          1       4    3px               0.109280       0.062233
                                                         0.155613       0.035668
                                                         0.238409       0.015304
                                                         0.548949      -0.003054
                                                         1.426820       0.021875
                          1       4    3py               0.109280       0.062233
                                                         0.155613       0.035668
                                                         0.238409       0.015304
                                                         0.548949      -0.003054
                                                         1.426820       0.021875
                          1       4    3pz               0.109280       0.062233
                                                         0.155613       0.035668
                                                         0.238409       0.015304
                                                         0.548949      -0.003054
                                                         1.426820       0.021875

                          1       5    3dx2              0.109280       0.000986
                                                         0.155613       0.002022
                                                         0.238409       0.109458
                                                         0.548949       0.095099
                                                         1.426820       0.028232
                          1       5    3dxy              0.109280       0.001708
                                                         0.155613       0.003503
                                                         0.238409       0.189586
                                                         0.548949       0.164717
                                                         1.426820       0.048900
                          1       5    3dxz              0.109280       0.001708
                                                         0.155613       0.003503
                                                         0.238409       0.189586
                                                         0.548949       0.164717
                                                         1.426820       0.048900
                          1       5    3dy2              0.109280       0.000986
                                                         0.155613       0.002022
                                                         0.238409       0.109458
                                                         0.548949       0.095099
                                                         1.426820       0.028232
                          1       5    3dyz              0.109280       0.001708
                                                         0.155613       0.003503
                                                         0.238409       0.189586
                                                         0.548949       0.164717
                                                         1.426820       0.048900
                          1       5    3dz2              0.109280       0.000986
                                                         0.155613       0.002022
                                                         0.238409       0.109458
                                                         0.548949       0.095099
                                                         1.426820       0.028232

                          2       1    1s                3.462516       0.753460
                                                         1.426055       0.121219

     AE Potential information for                                            ALL

       Description:                                       All-electron potential
                                          Krack, Parrinello, PCCP 2, 2105 (2000)

       Gaussian exponent of the core charge distribution:               2.655410
       Electronic configuration (s p d ...):                           4   1   0

  2. Atomic kind: N                                     Number of atoms:       1

     Orbital Basis Set                                         aug-SZV-MOLOPT-ae

       Number of orbital shell sets:                                           2
       Number of orbital shells:                                               6
       Number of primitive Cartesian functions:                               13
       Number of Cartesian basis functions:                                   15
       Number of spherical basis functions:                                   14
       Norm type:                                                              2

       Normalised Cartesian orbitals:

                        Set   Shell   Orbital            Exponent    Coefficient

                          1       1    1s                0.090000       0.000000
                                                         0.184684       0.048330
                                                         0.402911       0.214496
                                                         0.927724       0.168591
                                                         2.411326      -0.046594
                                                         7.758467      -0.155691
                                                        39.198808      -0.147969

                          1       2    2s                0.090000      -0.118940
                                                         0.184684       0.080942
                                                         0.402911      -0.164238
                                                         0.927724      -0.024406
                                                         2.411326       0.000000
                                                         7.758467       0.000000
                                                        39.198808       0.000000

                          1       3    2px               0.090000       0.000000
                                                         0.184684       0.017552
                                                         0.402911       0.194858
                                                         0.927724       0.542535
                                                         2.411326       0.744820
                                                         7.758467       0.695446
                                                        39.198808       0.525635
                          1       3    2py               0.090000       0.000000
                                                         0.184684       0.017552
                                                         0.402911       0.194858
                                                         0.927724       0.542535
                                                         2.411326       0.744820
                                                         7.758467       0.695446
                                                        39.198808       0.525635
                          1       3    2pz               0.090000       0.000000
                                                         0.184684       0.017552
                                                         0.402911       0.194858
                                                         0.927724       0.542535
                                                         2.411326       0.744820
                                                         7.758467       0.695446
                                                        39.198808       0.525635

                          1       4    3px               0.090000      -0.032237
                                                         0.184684      -0.080882
                                                         0.402911       0.112185
                                                         0.927724       1.067728
                                                         2.411326       0.000000
                                                         7.758467       0.000000
                                                        39.198808       0.000000
                          1       4    3py               0.090000      -0.032237
                                                         0.184684      -0.080882
                                                         0.402911       0.112185
                                                         0.927724       1.067728
                                                         2.411326       0.000000
                                                         7.758467       0.000000
                                                        39.198808       0.000000
                          1       4    3pz               0.090000      -0.032237
                                                         0.184684      -0.080882
                                                         0.402911       0.112185
                                                         0.927724       1.067728
                                                         2.411326       0.000000
                                                         7.758467       0.000000
                                                        39.198808       0.000000

                          1       5    3dx2              0.090000      -0.010633
                                                         0.184684      -0.050923
                                                         0.402911       0.103346
                                                         0.927724      -0.777682
                                                         2.411326       0.000000
                                                         7.758467       0.000000
                                                        39.198808       0.000000
                          1       5    3dxy              0.090000      -0.018417
                                                         0.184684      -0.088201
                                                         0.402911       0.179000
                                                         0.927724      -1.346985
                                                         2.411326       0.000000
                                                         7.758467       0.000000
                                                        39.198808       0.000000
                          1       5    3dxz              0.090000      -0.018417
                                                         0.184684      -0.088201
                                                         0.402911       0.179000
                                                         0.927724      -1.346985
                                                         2.411326       0.000000
                                                         7.758467       0.000000
                                                        39.198808       0.000000
                          1       5    3dy2              0.090000      -0.010633
                                                         0.184684      -0.050923
                                                         0.402911       0.103346
                                                         0.927724      -0.777682
                                                         2.411326       0.000000
                                                         7.758467       0.000000
                                                        39.198808       0.000000
                          1       5    3dyz              0.090000      -0.018417
                                                         0.184684      -0.088201
                                                         0.402911       0.179000
                                                         0.927724      -1.346985
                                                         2.411326       0.000000
                                                         7.758467       0.000000
                                                        39.198808       0.000000
                          1       5    3dz2              0.090000      -0.010633
                                                         0.184684      -0.050923
                                                         0.402911       0.103346
                                                         0.927724      -0.777682
                                                         2.411326       0.000000
                                                         7.758467       0.000000
                                                        39.198808       0.000000

                          2       1    1s             1027.828458       1.185541
                                                       188.451223       1.789359
                                                        52.721861       2.350183
                                                        18.111382       2.318652
                                                         7.033180       1.281976
                                                         2.896652       0.206248

     RI Auxiliary Basis Set             RI_aug-SZV-MOLOPT-ae_N_RI_078_s_p_d_f_g_

       Number of orbital shell sets:                                          22
       Number of orbital shells:                                              22
       Number of primitive Cartesian functions:                               22
       Number of Cartesian basis functions:                                   95
       Number of spherical basis functions:                                   78
       Norm type:                                                              2

       Normalised Cartesian orbitals:

                        Set   Shell   Orbital            Exponent    Coefficient

                          1       1   14dx2              0.291362       0.190181
                          1       1   14dxy              0.291362       0.329403
                          1       1   14dxz              0.291362       0.329403
                          1       1   14dy2              0.291362       0.190181
                          1       1   14dyz              0.291362       0.329403
                          1       1   14dz2              0.291362       0.190181

                          2       1    1s                0.318618       0.302248

                          3       1    8px               0.321098       0.344538
                          3       1    8py               0.321098       0.344538
                          3       1    8pz               0.321098       0.344538

                          4       1   19fx3              0.487459       0.292291
                          4       1   19fx2y             0.487459       0.653583
                          4       1   19fx2z             0.487459       0.653583
                          4       1   19fxy2             0.487459       0.653583
                          4       1   19fxyz             0.487459       1.132040
                          4       1   19fxz2             0.487459       0.653583
                          4       1   19fy3              0.487459       0.292291
                          4       1   19fy2z             0.487459       0.653583
                          4       1   19fyz2             0.487459       0.653583
                          4       1   19fz3              0.487459       0.292291

                          5       1    2s                0.502813       0.425564

                          6       1   15dx2              0.593989       0.661488
                          6       1   15dxy              0.593989       1.145730
                          6       1   15dxz              0.593989       1.145730
                          6       1   15dy2              0.593989       0.661488
                          6       1   15dyz              0.593989       1.145730
                          6       1   15dz2              0.593989       0.661488

                          7       1    9px               0.734849       0.969812
                          7       1    9py               0.734849       0.969812
                          7       1    9pz               0.734849       0.969812

                          8       1   20fx3              0.908355       1.185848
                          8       1   20fx2y             0.908355       2.651637
                          8       1   20fx2z             0.908355       2.651637
                          8       1   20fxy2             0.908355       2.651637
                          8       1   20fxyz             0.908355       4.592770
                          8       1   20fxz2             0.908355       2.651637
                          8       1   20fy3              0.908355       1.185848
                          8       1   20fy2z             0.908355       2.651637
                          8       1   20fyz2             0.908355       2.651637
                          8       1   20fz3              0.908355       1.185848

                          9       1    3s                1.242358       0.838678

                         10       1   16dx2              1.253766       2.445054
                         10       1   16dxy              1.253766       4.234958
                         10       1   16dxz              1.253766       4.234958
                         10       1   16dy2              1.253766       2.445054
                         10       1   16dyz              1.253766       4.234958
                         10       1   16dz2              1.253766       2.445054

                         11       1   10px               1.585831       2.536655
                         11       1   10py               1.585831       2.536655
                         11       1   10pz               1.585831       2.536655

                         12       1   21fx3              1.761593       5.263108
                         12       1   21fx2y             1.761593      11.768666
                         12       1   21fx2z             1.761593      11.768666
                         12       1   21fxy2             1.761593      11.768666
                         12       1   21fxyz             1.761593      20.383928
                         12       1   21fxz2             1.761593      11.768666
                         12       1   21fy3              1.761593       5.263108
                         12       1   21fy2z             1.761593      11.768666
                         12       1   21fyz2             1.761593      11.768666
                         12       1   21fz3              1.761593       5.263108

                         13       1   17dx2              2.705381       9.393105
                         13       1   17dxy              2.705381      16.269335
                         13       1   17dxz              2.705381      16.269335
                         13       1   17dy2              2.705381       9.393105
                         13       1   17dyz              2.705381      16.269335
                         13       1   17dz2              2.705381       9.393105

                         14       1   22fx3              3.387848      22.923628
                         14       1   22fx2y             3.387848      51.258791
                         14       1   22fx2z             3.387848      51.258791
                         14       1   22fxy2             3.387848      51.258791
                         14       1   22fxyz             3.387848      88.782831
                         14       1   22fxz2             3.387848      51.258791
                         14       1   22fy3              3.387848      22.923628
                         14       1   22fy2z             3.387848      51.258791
                         14       1   22fyz2             3.387848      51.258791
                         14       1   22fz3              3.387848      22.923628

                         15       1   11px               3.964252       7.973364
                         15       1   11py               3.964252       7.973364
                         15       1   11pz               3.964252       7.973364

                         16       1    4s                4.101762       2.054177

                         17       1   18dx2              5.710838      34.724354
                         17       1   18dxy              5.710838      60.144345
                         17       1   18dxz              5.710838      60.144345
                         17       1   18dy2              5.710838      34.724354
                         17       1   18dyz              5.710838      60.144345
                         17       1   18dz2              5.710838      34.724354

                         18       1   12px               9.453485      23.628165
                         18       1   12py               9.453485      23.628165
                         18       1   12pz               9.453485      23.628165

                         19       1    5s               12.671038       4.786513

                         20       1   13px              22.275538      68.980343
                         20       1   13py              22.275538      68.980343
                         20       1   13pz              22.275538      68.980343

                         21       1    6s               37.465322      10.792752

                         22       1    7s              110.027825      24.212353

       Atomic covalent radius [Angstrom]:                                  0.750

       Atomic van der Waals radius [Angstrom]:                             1.550

     The atoms of this atomic kind are PAW atoms (GAPW):
       Hard Gaussian function radius:                                      1.512
       Rho0 radius:                                                        1.512
       Maximum GTO radius used for PAW projector construction:            24.566

     GAPW Soft Basis Set                                  aug-SZV-MOLOPT-ae_soft

       Number of orbital shell sets:                                           2
       Number of orbital shells:                                               6
       Number of primitive Cartesian functions:                                6
       Number of Cartesian basis functions:                                   15
       Number of spherical basis functions:                                   14
       Norm type:                                                              2

       Normalised Cartesian orbitals:

                        Set   Shell   Orbital            Exponent    Coefficient

                          1       1    1s                0.090000       0.000000
                                                         0.184684       0.048330
                                                         0.402911       0.214496
                                                         0.927724       0.168591
                                                         2.411326      -0.046594

                          1       2    2s                0.090000      -0.118940
                                                         0.184684       0.080942
                                                         0.402911      -0.164238
                                                         0.927724      -0.024406
                                                         2.411326       0.000000

                          1       3    2px               0.090000       0.000000
                                                         0.184684       0.017552
                                                         0.402911       0.194858
                                                         0.927724       0.542535
                                                         2.411326       0.744820
                          1       3    2py               0.090000       0.000000
                                                         0.184684       0.017552
                                                         0.402911       0.194858
                                                         0.927724       0.542535
                                                         2.411326       0.744820
                          1       3    2pz               0.090000       0.000000
                                                         0.184684       0.017552
                                                         0.402911       0.194858
                                                         0.927724       0.542535
                                                         2.411326       0.744820

                          1       4    3px               0.090000      -0.032237
                                                         0.184684      -0.080882
                                                         0.402911       0.112185
                                                         0.927724       1.067728
                                                         2.411326       0.000000
                          1       4    3py               0.090000      -0.032237
                                                         0.184684      -0.080882
                                                         0.402911       0.112185
                                                         0.927724       1.067728
                                                         2.411326       0.000000
                          1       4    3pz               0.090000      -0.032237
                                                         0.184684      -0.080882
                                                         0.402911       0.112185
                                                         0.927724       1.067728
                                                         2.411326       0.000000

                          1       5    3dx2              0.090000      -0.010633
                                                         0.184684      -0.050923
                                                         0.402911       0.103346
                                                         0.927724      -0.777682
                                                         2.411326       0.000000
                          1       5    3dxy              0.090000      -0.018417
                                                         0.184684      -0.088201
                                                         0.402911       0.179000
                                                         0.927724      -1.346985
                                                         2.411326       0.000000
                          1       5    3dxz              0.090000      -0.018417
                                                         0.184684      -0.088201
                                                         0.402911       0.179000
                                                         0.927724      -1.346985
                                                         2.411326       0.000000
                          1       5    3dy2              0.090000      -0.010633
                                                         0.184684      -0.050923
                                                         0.402911       0.103346
                                                         0.927724      -0.777682
                                                         2.411326       0.000000
                          1       5    3dyz              0.090000      -0.018417
                                                         0.184684      -0.088201
                                                         0.402911       0.179000
                                                         0.927724      -1.346985
                                                         2.411326       0.000000
                          1       5    3dz2              0.090000      -0.010633
                                                         0.184684      -0.050923
                                                         0.402911       0.103346
                                                         0.927724      -0.777682
                                                         2.411326       0.000000

                          2       1    1s                2.896652       0.206248

     AE Potential information for                                            ALL

       Description:                                       All-electron potential
                                          Krack, Parrinello, PCCP 2, 2105 (2000)

       Gaussian exponent of the core charge distribution:               5.979100
       Electronic configuration (s p d ...):                           4   3   0


 MOLECULE KIND INFORMATION


 All atoms are their own molecule, skipping detailed information


 TOTAL NUMBERS AND MAXIMUM NUMBERS

  Total number of            - Atomic kinds:                                   2
                             - Atoms:                                          2
                             - Shell sets:                                     4
                             - Shells:                                        12
                             - Primitive Cartesian functions:                 26
                             - Cartesian basis functions:                     30
                             - Spherical basis functions:                     28

  Maximum angular momentum of the orbital basis functions:                     2


 MODULE QUICKSTEP: ATOMIC COORDINATES IN ANGSTROM

   Atom Kind Element         X             Y             Z       Z(eff)     Mass
      1    1 B     5     14.334900     15.000000     15.000000   5.0000  10.8110
      2    2 N     7     15.665100     15.000000     15.000000   7.0000  14.0067



 SCF PARAMETERS         Density guess:                                    ATOMIC
                        --------------------------------------------------------
                        max_scf:                                             500
                        max_scf_history:                                       0
                        max_diis:                                              4
                        --------------------------------------------------------
                        eps_scf:                                        1.00E-06
                        eps_scf_history:                                0.00E+00
                        eps_diis:                                       1.00E-01
                        eps_eigval:                                     1.00E-05
                        --------------------------------------------------------
                        level_shift [a.u.]:                             0.000000
                        added MOs                                        22    0
                        --------------------------------------------------------
                        Mixing method:                            BROYDEN_MIXING
                                                charge density mixing in g-space
                        --------------------------------------------------------
                        No outer SCF

 PW_GRID| Information for grid number                                          1
 PW_GRID| Grid distributed over                                    24 processors
 PW_GRID| Real space group dimensions                                    24    1
 PW_GRID| the grid is blocked:                                                NO
 PW_GRID| Cutoff [a.u.]                                                    250.0
 PW_GRID| spherical cutoff:                                                   NO
 PW_GRID|   Bounds   1           -202     202                Points:         405
 PW_GRID|   Bounds   2           -202     202                Points:         405
 PW_GRID|   Bounds   3           -202     202                Points:         405
 PW_GRID| Volume element (a.u.^3)  0.2743E-02     Volume (a.u.^3)    182205.0337
 PW_GRID| Grid span                                                    FULLSPACE
 PW_GRID|   Distribution                         Average         Max         Min
 PW_GRID|   G-Vectors                          2767921.9     2768175     2767770
 PW_GRID|   G-Rays                                6834.4        6835        6834
 PW_GRID|   Real Space Points                  2767921.9     2788425     2624400

 PW_GRID| Information for grid number                                          2
 PW_GRID| Number of the reference grid                                         1
 PW_GRID| Grid distributed over                                    24 processors
 PW_GRID| Real space group dimensions                                    24    1
 PW_GRID| the grid is blocked:                                                NO
 PW_GRID| Cutoff [a.u.]                                                     83.3
 PW_GRID| spherical cutoff:                                                   NO
 PW_GRID|   Bounds   1           -120     119                Points:         240
 PW_GRID|   Bounds   2           -120     119                Points:         240
 PW_GRID|   Bounds   3           -120     119                Points:         240
 PW_GRID| Volume element (a.u.^3)  0.1318E-01     Volume (a.u.^3)    182205.0337
 PW_GRID| Grid span                                                    FULLSPACE
 PW_GRID|   Distribution                         Average         Max         Min
 PW_GRID|   G-Vectors                           576000.0      576240      575760
 PW_GRID|   G-Rays                                2400.0        2401        2399
 PW_GRID|   Real Space Points                   576000.0      576000      576000

 PW_GRID| Information for grid number                                          3
 PW_GRID| Number of the reference grid                                         1
 PW_GRID| Grid distributed over                                    24 processors
 PW_GRID| Real space group dimensions                                    24    1
 PW_GRID| the grid is blocked:                                                NO
 PW_GRID| Cutoff [a.u.]                                                     27.8
 PW_GRID| spherical cutoff:                                                   NO
 PW_GRID|   Bounds   1            -67      67                Points:         135
 PW_GRID|   Bounds   2            -67      67                Points:         135
 PW_GRID|   Bounds   3            -67      67                Points:         135
 PW_GRID| Volume element (a.u.^3)  0.7406E-01     Volume (a.u.^3)    182205.0337
 PW_GRID| Grid span                                                    FULLSPACE
 PW_GRID|   Distribution                         Average         Max         Min
 PW_GRID|   G-Vectors                           102515.6      102735      102330
 PW_GRID|   G-Rays                                 759.4         761         758
 PW_GRID|   Real Space Points                   102515.6      109350       91125

 PW_GRID| Information for grid number                                          4
 PW_GRID| Number of the reference grid                                         1
 PW_GRID| Grid distributed over                                    24 processors
 PW_GRID| Real space group dimensions                                    24    1
 PW_GRID| the grid is blocked:                                                NO
 PW_GRID| Cutoff [a.u.]                                                      9.3
 PW_GRID| spherical cutoff:                                                   NO
 PW_GRID|   Bounds   1            -40      39                Points:          80
 PW_GRID|   Bounds   2            -40      39                Points:          80
 PW_GRID|   Bounds   3            -40      39                Points:          80
 PW_GRID| Volume element (a.u.^3)  0.3559         Volume (a.u.^3)    182205.0337
 PW_GRID| Grid span                                                    FULLSPACE
 PW_GRID|   Distribution                         Average         Max         Min
 PW_GRID|   G-Vectors                            21333.3       21360       21280
 PW_GRID|   G-Rays                                 266.7         267         266
 PW_GRID|   Real Space Points                    21333.3       25600       19200

 POISSON| Solver                                                         WAVELET
 POISSON| Wavelet| Scaling function                                           40
 POISSON| Periodicity                                                       NONE

 RS_GRID| Information for grid number                                          1
 RS_GRID|   Bounds   1           -202     202                Points:         405
 RS_GRID|   Bounds   2           -202     202                Points:         405
 RS_GRID|   Bounds   3           -202     202                Points:         405
 RS_GRID| Real space distribution over                                  4 groups
 RS_GRID| Real space distribution along direction                              2
 RS_GRID| Border size                                                         34
 RS_GRID| Real space distribution over                                  6 groups
 RS_GRID| Real space distribution along direction                              3
 RS_GRID| Border size                                                         34
 RS_GRID|   Distribution                         Average         Max         Min
 RS_GRID|   Planes                                 169.2         170         169
 RS_GRID|   Distribution                         Average         Max         Min
 RS_GRID|   Planes                                 135.5         136         135

 RS_GRID| Information for grid number                                          2
 RS_GRID|   Bounds   1           -120     119                Points:         240
 RS_GRID|   Bounds   2           -120     119                Points:         240
 RS_GRID|   Bounds   3           -120     119                Points:         240
 RS_GRID| Real space distribution over                                  4 groups
 RS_GRID| Real space distribution along direction                              2
 RS_GRID| Border size                                                         37
 RS_GRID| Real space distribution over                                  6 groups
 RS_GRID| Real space distribution along direction                              3
 RS_GRID| Border size                                                         37
 RS_GRID|   Distribution                         Average         Max         Min
 RS_GRID|   Planes                                 134.0         134         134
 RS_GRID|   Distribution                         Average         Max         Min
 RS_GRID|   Planes                                 114.0         114         114

 RS_GRID| Information for grid number                                          3
 RS_GRID|   Bounds   1            -67      67                Points:         135
 RS_GRID|   Bounds   2            -67      67                Points:         135
 RS_GRID|   Bounds   3            -67      67                Points:         135
 RS_GRID| Real space fully replicated
 RS_GRID| Group size                                                           1

 RS_GRID| Information for grid number                                          4
 RS_GRID|   Bounds   1            -40      39                Points:          80
 RS_GRID|   Bounds   2            -40      39                Points:          80
 RS_GRID|   Bounds   3            -40      39                Points:          80
 RS_GRID| Real space fully replicated
 RS_GRID| Group size                                                           1

  HFX_INFO| Replica ID:                                                        1
  HFX_INFO| FRACTION:                                               0.2500000000
  HFX_INFO| Interaction Potential:                                       COULOMB
  HFX_INFO| EPS_SCHWARZ:                                                 1.0E-10
  HFX_INFO| EPS_SCHWARZ_FORCES                                           1.0E-08
  HFX_INFO| EPS_STORAGE_SCALING:                                         1.0E+00
  HFX_INFO| NBINS:                                                            64
  HFX_INFO| BLOCK_SIZE:                                                        1
  HFX_INFO| Number of periodic shells considered:                           NONE
  HFX_INFO| Number of periodic cells considered:                            NONE

 
 RI-RPA| using GPW style
 

 OVERLAP MATRIX CONDITION NUMBER
 1-Norm Condition Number (Estimate)
   CN : |A|*|A^-1|:  4.691E+000 *  1.121E+002   = 5.258E+002  Log(1-CN):  2.7208
 1-Norm and 2-Norm Condition Numbers using Diagonalization
   CN : |A|*|A^-1|:  4.691E+000 *  1.121E+002   = 5.258E+002  Log(1-CN):  2.7208
   CN : max/min ev:  3.450E+000 /  1.442E-002   = 2.392E+002  Log(2-CN):  2.3788

 Number of electrons:                                                         12
 Number of occupied orbitals:                                                  6
 Number of molecular orbitals:                                                28

 Number of orbital functions:                                                 28
 Number of independent orbital functions:                                     28

 Extrapolation method: initial_guess

 Atomic guess: The first density matrix is obtained in terms of atomic orbitals
               and electronic configurations assigned to each atomic kind

 Guess for atomic kind: B

 Electronic structure
    Total number of core electrons                                          0.00
    Total number of valence electrons                                       5.00
    Total number of electrons                                               5.00
    Multiplicity                                                   not specified
    S      2.00  2.00
    P      1.00


 *******************************************************************************
                  Iteration          Convergence                     Energy [au]
 *******************************************************************************
                          1        0.612489E-01                 -24.304439508901
                          2        0.220484E-01                 -24.305945213911
                          3        0.367076E-03                 -24.306247196960
                          4        0.456899E-05                 -24.306247340970
                          5        0.241868E-07                 -24.306247340986

 Energy components [Hartree]           Total Energy ::          -24.306247340986
                                        Band Energy ::          -13.825803348850
                                     Kinetic Energy ::           23.970530113188
                                   Potential Energy ::          -48.276777454174
                                      Virial (-V/T) ::            2.014005415242
                                        Core Energy ::          -32.361048727638
                                          XC Energy ::           -3.546375173816
                                     Coulomb Energy ::           11.601176560468

 Orbital energies  State     L     Occupation   Energy[a.u.]          Energy[eV]

                       1     0          2.000      -6.531739         -177.737651
                       2     0          2.000      -0.324835           -8.839199

                       1     1          1.000      -0.112657           -3.065543


 Total Electron Density at R=0:                                        58.671969

 Guess for atomic kind: N

 Electronic structure
    Total number of core electrons                                          0.00
    Total number of valence electrons                                       7.00
    Total number of electrons                                               7.00
    Multiplicity                                                   not specified
    S      2.00  2.00
    P      3.00


 *******************************************************************************
                  Iteration          Convergence                     Energy [au]
 *******************************************************************************
                          1        0.325929                     -53.884153266199
                          2        0.157204                     -53.911997171341
                          3        0.119206E-02                 -53.921312470162
                          4        0.146154E-04                 -53.921312958938
                          5        0.703430E-05                 -53.921312958993
                          6        0.461880E-05                 -53.921312959002
                          7        0.894723E-08                 -53.921312959009

 Energy components [Hartree]           Total Energy ::          -53.921312959009
                                        Band Energy ::          -30.455902305516
                                     Kinetic Energy ::           53.519410139912
                                   Potential Energy ::         -107.440723098921
                                      Virial (-V/T) ::            2.007509477740
                                        Core Energy ::          -73.216670532427
                                          XC Energy ::           -6.109461717977
                                     Coulomb Energy ::           25.404819291395

 Orbital energies  State     L     Occupation   Energy[a.u.]          Energy[eV]

                       1     0          2.000     -14.102420         -383.746365
                       2     0          2.000      -0.702220          -19.108372

                       1     1          3.000      -0.282208           -7.679258


 Total Electron Density at R=0:                                       175.030911
 Re-scaling the density matrix to get the right number of electrons
                  # Electrons              Trace(P)               Scaling factor
                           12                12.000                        1.000


 SCF WAVEFUNCTION OPTIMIZATION

  Step     Update method      Time    Convergence         Total energy    Change
  ------------------------------------------------------------------------------

  HFX_MEM_INFO| Est. max. program size before HFX [MiB]:                    2148
  HFX_MEM_INFO| Number of cart. primitive ERI's calculated:            190585491
  HFX_MEM_INFO| Number of sph. ERI's calculated:                          230496
  HFX_MEM_INFO| Number of sph. ERI's stored in-core:                      230496
  HFX_MEM_INFO| Number of sph. ERI's stored on disk:                           0
  HFX_MEM_INFO| Number of sph. ERI's calculated on the fly:                    0
  HFX_MEM_INFO| Total memory consumption ERI's RAM [MiB]:                      2
  HFX_MEM_INFO| Whereof max-vals [MiB]:                                        1
  HFX_MEM_INFO| Total compression factor ERI's RAM:                         1.11
  HFX_MEM_INFO| Total memory consumption ERI's disk [MiB]:                     0
  HFX_MEM_INFO| Total compression factor ERI's disk:                        0.00
  HFX_MEM_INFO| Size of density/Fock matrix [MiB]:                             0
  HFX_MEM_INFO| Size of buffers [MiB]:                                         0
  HFX_MEM_INFO| Est. max. program size after HFX  [MiB]:                    2659

     1 NoMix/Diag. 0.10E+00   10.1     0.78888850       -79.3263641518 -7.93E+01
     2 Broy./Diag. 0.10E+00    4.9     0.10888276       -77.9833410791  1.34E+00
     3 Broy./Diag. 0.10E+00    4.9     0.10069508       -77.7959818236  1.87E-01
     4 Broy./Diag. 0.10E+00    5.3     0.43518977       -78.0607406195 -2.65E-01
     5 Broy./Diag. 0.10E+00    5.5     0.07106224       -78.9139954222 -8.53E-01
     6 Broy./Diag. 0.10E+00    5.7     0.21748682       -78.4904106898  4.24E-01
[...]
   418 Broy./Diag. 0.10E+00    5.9     0.19907444       -79.3975013638  7.97E-02
   419 Broy./Diag. 0.10E+00    5.7     0.19517897       -79.2140964623  1.83E-01
   420 Broy./Diag. 0.10E+00    5.7     0.09532432       -79.0952904994  1.19E-01
   421 Broy./Diag. 0.10E+00    5.6     0.05732368       -79.0906660277  4.62E-03
   422 Broy./Diag. 0.10E+00    5.5     0.08576330       -79.1324308751 -4.18E-02
   423 Broy./Diag. 0.10E+00    5.4     0.07379024       -79.1843637773 -5.19E-02
   424 Broy./Diag. 0.10E+00    5.5     0.06661651       -79.1606623000  2.37E-02
   425 Broy./Diag. 0.10E+00    5.7     0.07527650       -79.2306538636 -7.00E-02
   426 Broy./Diag. 0.10E+00    5.8     0.08738059       -79.2257839830  4.87E-03
   427 Broy./Diag. 0.10E+00    6.0     0.06662912       -79.2060157128  1.98E-02
   428 Broy./Diag. 0.10E+00    5.9     0.08852873       -79.2098667317 -3.85E-03
   429 Broy./Diag. 0.10E+00    5.8     0.12093734       -79.2447821527 -3.49E-02
   430 Broy./Diag. 0.10E+00    6.2     0.14188115       -79.4069542709 -1.62E-01
   431 Broy./Diag. 0.10E+00    5.9     0.21315007       -79.4898270977 -8.29E-02
   432 Broy./Diag. 0.10E+00    6.0     0.17421513       -79.6201354344 -1.30E-01
   433 Broy./Diag. 0.10E+00    5.9     0.17184627       -79.6083060917  1.18E-02
   434 Broy./Diag. 0.10E+00    5.8     0.12469889       -79.6180546479 -9.75E-03
   435 Broy./Diag. 0.10E+00    5.8     0.11137281       -79.6123330066  5.72E-03
   436 Broy./Diag. 0.10E+00    5.6     0.08800249       -79.6278934267 -1.56E-02
   437 Broy./Diag. 0.10E+00    5.6     0.07024411       -79.6153643860  1.25E-02
   438 Broy./Diag. 0.10E+00    5.5     0.03966118       -79.5863328535  2.90E-02
   439 Broy./Diag. 0.10E+00    5.5     0.05951353       -79.5788932289  7.44E-03
   440 Broy./Diag. 0.10E+00    5.9     0.12606167       -79.5306502818  4.82E-02
   441 Broy./Diag. 0.10E+00    6.0     0.52704673       -79.5118776174  1.88E-02
   442 Broy./Diag. 0.10E+00    5.9     0.62317754       -79.3539906783  1.58E-01
   443 Broy./Diag. 0.10E+00    6.0     0.16442518       -78.9905046819  3.63E-01
   444 Broy./Diag. 0.10E+00    5.9     0.18944153       -79.0274376996 -3.69E-02
   445 Broy./Diag. 0.10E+00    5.9     0.15495669       -79.3254058078 -2.98E-01
   446 Broy./Diag. 0.10E+00    6.2     0.11820417       -79.4760391025 -1.51E-01
   447 Broy./Diag. 0.10E+00    5.8     0.08503022       -79.5856787134 -1.10E-01
   448 Broy./Diag. 0.10E+00    5.9     0.10682551       -79.6613980735 -7.57E-02
   449 Broy./Diag. 0.10E+00    5.7     0.10083967       -79.7227830586 -6.14E-02
   450 Broy./Diag. 0.10E+00    5.6     0.16964628       -79.7059149802  1.69E-02
   451 Broy./Diag. 0.10E+00    5.6     0.19640126       -79.7017694968  4.15E-03
   452 Broy./Diag. 0.10E+00    5.5     0.15260587       -79.6827861746  1.90E-02
   453 Broy./Diag. 0.10E+00    5.4     0.20176505       -79.5601980933  1.23E-01
   454 Broy./Diag. 0.10E+00    5.4     0.10750171       -79.5654119981 -5.21E-03
   455 Broy./Diag. 0.10E+00    5.6     0.11102082       -79.5466693917  1.87E-02
   456 Broy./Diag. 0.10E+00    6.1     0.13559196       -79.5266315975  2.00E-02
   457 Broy./Diag. 0.10E+00    5.8     0.17138728       -79.4370227080  8.96E-02
   458 Broy./Diag. 0.10E+00    6.1     0.53445678       -79.2351767297  2.02E-01
   459 Broy./Diag. 0.10E+00    5.9     0.36757956       -78.9458615836  2.89E-01
   460 Broy./Diag. 0.10E+00    6.0     0.41862780       -78.8687612109  7.71E-02
   461 Broy./Diag. 0.10E+00    6.0     0.16157839       -78.6387689477  2.30E-01
   462 Broy./Diag. 0.10E+00    5.9     0.11225486       -78.5707402282  6.80E-02
   463 Broy./Diag. 0.10E+00    5.9     0.21852557       -78.7642548022 -1.94E-01
   464 Broy./Diag. 0.10E+00    5.7     0.09904598       -79.1054568484 -3.41E-01
   465 Broy./Diag. 0.10E+00    5.7     0.11434805       -79.1944087254 -8.90E-02
   466 Broy./Diag. 0.10E+00    5.7     0.06087697       -79.3282048073 -1.34E-01
   467 Broy./Diag. 0.10E+00    5.7     0.16159852       -79.1799337950  1.48E-01
   468 Broy./Diag. 0.10E+00    5.5     0.16963207       -79.4551334644 -2.75E-01
   469 Broy./Diag. 0.10E+00    5.5     0.15674674       -79.6715241036 -2.16E-01
   470 Broy./Diag. 0.10E+00    5.5     0.13180886       -79.7946613963 -1.23E-01
   471 Broy./Diag. 0.10E+00    5.8     0.11512530       -79.8247070640 -3.00E-02
   472 Broy./Diag. 0.10E+00    5.9     0.16477363       -79.8231089864  1.60E-03
   473 Broy./Diag. 0.10E+00    6.1     0.15107256       -79.7578690518  6.52E-02
   474 Broy./Diag. 0.10E+00    6.1     0.13019965       -79.7378904392  2.00E-02
   475 Broy./Diag. 0.10E+00    6.1     0.10423340       -79.6839066869  5.40E-02
   476 Broy./Diag. 0.10E+00    6.0     0.07678863       -79.6809033165  3.00E-03
   477 Broy./Diag. 0.10E+00    6.0     0.07485589       -79.6202238705  6.07E-02
   478 Broy./Diag. 0.10E+00    5.8     0.09289491       -79.5099140986  1.10E-01
   479 Broy./Diag. 0.10E+00    5.7     0.11207282       -79.4254106440  8.45E-02
   480 Broy./Diag. 0.10E+00    5.6     0.36128485       -79.5178571442 -9.24E-02
   481 Broy./Diag. 0.10E+00    5.5     0.49958676       -79.3029065825  2.15E-01
   482 Broy./Diag. 0.10E+00    5.6     0.25087586       -79.0209514902  2.82E-01
   483 Broy./Diag. 0.10E+00    5.4     0.09708966       -79.3885103689 -3.68E-01
   484 Broy./Diag. 0.10E+00    5.5     0.23898501       -79.4850452411 -9.65E-02
   485 Broy./Diag. 0.10E+00    6.0     0.17009229       -79.7412539810 -2.56E-01
   486 Broy./Diag. 0.10E+00    6.1     0.08500700       -79.8868546780 -1.46E-01
   487 Broy./Diag. 0.10E+00    6.1     0.04178300       -79.9298735543 -4.30E-02
   488 Broy./Diag. 0.10E+00    5.9     0.03164898       -79.9455850680 -1.57E-02
   489 Broy./Diag. 0.10E+00    6.1     0.04935336       -79.9650569280 -1.95E-02
   490 Broy./Diag. 0.10E+00    5.8     0.09247095       -80.0065472547 -4.15E-02
   491 Broy./Diag. 0.10E+00    5.8     0.04098506       -79.9573643470  4.92E-02
   492 Broy./Diag. 0.10E+00    5.7     0.23683530       -79.8808006325  7.66E-02
   493 Broy./Diag. 0.10E+00    5.7     0.14406683       -79.5369674480  3.44E-01
   494 Broy./Diag. 0.10E+00    5.6     0.10954104       -79.5069768775  3.00E-02
   495 Broy./Diag. 0.10E+00    5.6     0.09480752       -79.4548984603  5.21E-02
   496 Broy./Diag. 0.10E+00    5.5     0.12491901       -79.2955623926  1.59E-01
   497 Broy./Diag. 0.10E+00    5.4     0.16065640       -79.0598532726  2.36E-01
   498 Broy./Diag. 0.10E+00    5.5     0.13433977       -79.0022458820  5.76E-02
   499 Broy./Diag. 0.10E+00    6.1     0.16662605       -79.1611814608 -1.59E-01
   500 Broy./Diag. 0.10E+00    5.8     0.14785899       -79.1011746076  6.00E-02

  Leaving inner SCF loop after reaching   500 steps.


  Electronic density on regular grids:         -8.6072548881        3.3927451119
  Core density on regular grids:               12.0000000000        0.0000000000
  Hard and soft densities (Lebedev):          -21.9438878088      -18.5532119326
  Total Rho_soft + Rho1_hard - Rho1_soft      -11.9979307642
  Total charge density (r-space):               0.0020692358
  Total Rho_soft + Rho0_soft (g-space):         0.0020691576

  Overlap energy of the core charge distribution:               0.00001993455823
  Self energy of the core charge distribution:                -64.05191455199152
  Core Hamiltonian energy:                                    -14.40917526736134
  Hartree energy:                                              16.91079231514865
  Exchange-correlation energy:                                 -2.89783709122631
  Hartree-Fock Exchange energy:                                -2.57789275396573

  GAPW| Exc from hard and soft atomic rho1:                    -5.16569809417595
  GAPW| local Eh = 1 center integrals:                         -6.90946909858887

  Total energy:                                               -79.10117460760284

 *******************************************************************************
 *   ___                                                                       *
 *  /   \                                                                      *
 * [ABORT]                                                                     *
 *  \___/     SCF run NOT converged. To continue the calculation regardless,   *
 *    |             please set the keyword IGNORE_CONVERGENCE_FAILURE.         *
 *  O/|                                                                        *
 * /| |                                                                        *
 * / \                                                            qs_scf.F:611 *
 *******************************************************************************


 ===== Routine Calling Stack ===== 

            3 scf_env_do_scf
            2 qs_energies
            1 CP2K

 *******************************************************************************
 *   ___                                                                       *
 *  /   \                                                                      *
 * [ABORT]                                                                     *
 *  \___/     SCF run NOT converged. To continue the calculation regardless,   *
 *    |             please set the keyword IGNORE_CONVERGENCE_FAILURE.         *
 *  O/|                                                                        *
 * /| |                                                                        *
 * / \                                                            qs_scf.F:611 *
 *******************************************************************************


 ===== Routine Calling Stack ===== 

            3 scf_env_do_scf
            2 qs_energies
            1 CP2K

 *******************************************************************************
 *   ___                                                                       *
 *  /   \                                                                      *
 * [ABORT]                                                                     *
 *  \___/     SCF run NOT converged. To continue the calculation regardless,   *
 *    |             please set the keyword IGNORE_CONVERGENCE_FAILURE.         *
 *  O/|                                                                        *
 * /| |                                                                        *
 * / \                                                            qs_scf.F:611 *
 *******************************************************************************


 ===== Routine Calling Stack ===== 

            3 scf_env_do_scf
            2 qs_energies
            1 CP2K

 *******************************************************************************
 *   ___                                                                       *
 *  /   \                                                                      *
 * [ABORT]                                                                     *
 *  \___/     SCF run NOT converged. To continue the calculation regardless,   *
 *    |             please set the keyword IGNORE_CONVERGENCE_FAILURE.         *
 *  O/|                                                                        *
 * /| |                                                                        *
 * / \                                                            qs_scf.F:611 *
 *******************************************************************************


 ===== Routine Calling Stack ===== 

            3 scf_env_do_scf
            2 qs_energies
            1 CP2K

 *******************************************************************************
 *   ___                                                                       *
 *  /   \                                                                      *
 * [ABORT]                                                                     *
 *  \___/     SCF run NOT converged. To continue the calculation regardless,   *
 *    |             please set the keyword IGNORE_CONVERGENCE_FAILURE.         *
 *  O/|                                                                        *
 * /| |                                                                        *
 * / \                                                            qs_scf.F:611 *
 *******************************************************************************


 ===== Routine Calling Stack ===== 

            3 scf_env_do_scf
            2 qs_energies
            1 CP2K

 *******************************************************************************
 *   ___                                                                       *
 *  /   \                                                                      *
 * [ABORT]                                                                     *
 *  \___/     SCF run NOT converged. To continue the calculation regardless,   *
 *    |             please set the keyword IGNORE_CONVERGENCE_FAILURE.         *
 *  O/|                                                                        *
 * /| |                                                                        *
 * / \                                                            qs_scf.F:611 *
 *******************************************************************************


 ===== Routine Calling Stack ===== 

            3 scf_env_do_scf
            2 qs_energies
            1 CP2K

 *******************************************************************************
 *   ___                                                                       *
 *  /   \                                                                      *
 * [ABORT]                                                                     *
 *  \___/     SCF run NOT converged. To continue the calculation regardless,   *
 *    |             please set the keyword IGNORE_CONVERGENCE_FAILURE.         *
 *  O/|                                                                        *
 * /| |                                                                        *
 * / \                                                            qs_scf.F:611 *
 *******************************************************************************


 ===== Routine Calling Stack ===== 

            3 scf_env_do_scf
            2 qs_energies
            1 CP2K

 *******************************************************************************
 *   ___                                                                       *
 *  /   \                                                                      *
 * [ABORT]                                                                     *
 *  \___/     SCF run NOT converged. To continue the calculation regardless,   *
 *    |             please set the keyword IGNORE_CONVERGENCE_FAILURE.         *
 *  O/|                                                                        *
 * /| |                                                                        *
 * / \                                                            qs_scf.F:611 *
 *******************************************************************************


 ===== Routine Calling Stack ===== 

            3 scf_env_do_scf
            2 qs_energies
            1 CP2K

 *******************************************************************************
 *   ___                                                                       *
 *  /   \                                                                      *
 * [ABORT]                                                                     *
 *  \___/     SCF run NOT converged. To continue the calculation regardless,   *
 *    |             please set the keyword IGNORE_CONVERGENCE_FAILURE.         *
 *  O/|                                                                        *
 * /| |                                                                        *
 * / \                                                            qs_scf.F:611 *
 *******************************************************************************


 ===== Routine Calling Stack ===== 

            3 scf_env_do_scf
            2 qs_energies
            1 CP2K

 *******************************************************************************
 *   ___                                                                       *
 *  /   \                                                                      *
 * [ABORT]                                                                     *
 *  \___/     SCF run NOT converged. To continue the calculation regardless,   *
 *    |             please set the keyword IGNORE_CONVERGENCE_FAILURE.         *
 *  O/|                                                                        *
 * /| |                                                                        *
 * / \                                                            qs_scf.F:611 *
 *******************************************************************************


 ===== Routine Calling Stack ===== 

            3 scf_env_do_scf
            2 qs_energies
            1 CP2K

 *******************************************************************************
 *   ___                                                                       *
 *  /   \                                                                      *
 * [ABORT]                                                                     *
 *  \___/     SCF run NOT converged. To continue the calculation regardless,   *
 *    |             please set the keyword IGNORE_CONVERGENCE_FAILURE.         *
 *  O/|                                                                        *
 * /| |                                                                        *
 * / \                                                            qs_scf.F:611 *
 *******************************************************************************


 ===== Routine Calling Stack ===== 

            3 scf_env_do_scf
            2 qs_energies
            1 CP2K

 *******************************************************************************
 *   ___                                                                       *
 *  /   \                                                                      *
 * [ABORT]                                                                     *
 *  \___/     SCF run NOT converged. To continue the calculation regardless,   *
 *    |             please set the keyword IGNORE_CONVERGENCE_FAILURE.         *
 *  O/|                                                                        *
 * /| |                                                                        *
 * / \                                                            qs_scf.F:611 *
 *******************************************************************************


 ===== Routine Calling Stack ===== 

            3 scf_env_do_scf
            2 qs_energies
            1 CP2K

 *******************************************************************************
 *   ___                                                                       *
 *  /   \                                                                      *
 * [ABORT]                                                                     *
 *  \___/     SCF run NOT converged. To continue the calculation regardless,   *
 *    |             please set the keyword IGNORE_CONVERGENCE_FAILURE.         *
 *  O/|                                                                        *
 * /| |                                                                        *
 * / \                                                            qs_scf.F:611 *
 *******************************************************************************


 ===== Routine Calling Stack ===== 

            3 scf_env_do_scf
            2 qs_energies
            1 CP2K
