 DBCSR| CPU Multiplication driver                                           BLAS (U)
 DBCSR| Multrec recursion limit                                              512 (U)
 DBCSR| Multiplication stack size                                           1000 (D)
 DBCSR| Maximum elements for images                                    UNLIMITED (U)
 DBCSR| Multiplicative factor virtual images                                   1 (U)
 DBCSR| Use multiplication densification                                       T (D)
 DBCSR| Multiplication size stacks                                             3 (U)
 DBCSR| Use memory pool for CPU allocation                                     F (U)
 DBCSR| Number of 3D layers                                               SINGLE (U)
 DBCSR| Use MPI memory allocation                                              F (U)
 DBCSR| Use RMA algorithm                                                      F (U)
 DBCSR| Use Communication thread                                               T (U)
 DBCSR| Communication thread load                                             75 (D)
 DBCSR| MPI: My process id                                                     0
 DBCSR| MPI: Number of processes                                              48
 DBCSR| OMP: Current number of threads                                         4
 DBCSR| OMP: Max number of threads                                             4
 DBCSR| Split modifier for TAS multiplication algorithm                  1.0E+00 (U)


  **** **** ******  **  PROGRAM STARTED AT               2025-03-28 05:39:25.003
 ***** ** ***  *** **   PROGRAM STARTED ON                          i03r03c05s06
 **    ****   ******    PROGRAM STARTED BY                               di38fab
 ***** **    ** ** **   PROGRAM PROCESS ID                                543282
  **** **  *******  **  PROGRAM STARTED IN /hppfs/scratch/04/di38fab/05_MOL/W4-1
                                           1+ALK/c2/aug-cc-pV5Z/GW+BSE

 CP2K| version string:                 CP2K version 2025.1 (Development Version)
 CP2K| source code revision number:                                  git:d2e611a
 CP2K| cp2kflags: omp libint fftw3 libxc parallel scalapack max_contr=4         
 CP2K| is freely available from                            https://www.cp2k.org/
 CP2K| Program compiled at                       Thu 06 Mar 2025 05:09:20 PM CET
 CP2K| Program compiled on                                               login02
 CP2K| Program compiled for                                        Supermuc-foss
 CP2K| Data directory path                  /hppfs/work/pn36zo/di38fab/cp2k/data
 CP2K| Input file name                                                    GW.inp

 GLOBAL| Force Environment number                                              1
 GLOBAL| Basis set file name            /hppfs/scratch/04/di38fab/04_TMD/BASIS_A
 GLOBAL| Potential file name            /hppfs/work/pn36zo/di38fab/cp2k/data/ALL
 GLOBAL| MM Potential file name                                     MM_POTENTIAL
 GLOBAL| Coordinate file name                                      __STD_INPUT__
 GLOBAL| Method name                                                        CP2K
 GLOBAL| Project name                                                       MoS2
 GLOBAL| Run type                                                         ENERGY
 GLOBAL| FFT library                                                       FFTW3
 GLOBAL| Diagonalization library                                       ScaLAPACK
 GLOBAL| DGEMM library                                                      BLAS
 GLOBAL| Orthonormality check for eigenvectors                          DISABLED
 GLOBAL| Matrix multiplication library                                 ScaLAPACK
 GLOBAL| All-to-all communication in single precision                          F
 GLOBAL| FFTs using library dependent lengths                                  F
 GLOBAL| Grid backend                                                       AUTO
 GLOBAL| Global print level                                               MEDIUM
 GLOBAL| MPI I/O enabled                                                       T
 GLOBAL| Total number of message passing processes                            48
 GLOBAL| Number of threads for this process                                    4
 GLOBAL| This output is from process                                           0
 GLOBAL| OpenMP stack size per thread (OMP_STACKSIZE)                    default
 GLOBAL| CPU model name             Intel(R) Xeon(R) Platinum 8174 CPU @ 3.10GHz

 MEMORY| system memory details [Kb]
 MEMORY|                        rank 0           min           max       average
 MEMORY| MemTotal             98436660      98436660      98436660      98436660
 MEMORY| MemFree              85731876      85588684      85731876      85676143
 MEMORY| Buffers                     0             0             0             0
 MEMORY| Cached                2224348       2223504       2225144       2224287
 MEMORY| Slab                   898396        897208        908980        901565
 MEMORY| SReclaimable           196164        193920        199372        196693
 MEMORY| MemLikelyFree        88152388      88011560      88152388      88097123


 *** Fundamental physical constants (SI units) ***

 *** Literature: B. J. Mohr and B. N. Taylor,
 ***             CODATA recommended values of the fundamental physical
 ***             constants: 2006, Web Version 5.1
 ***             http://physics.nist.gov/constants

 Speed of light in vacuum [m/s]                             2.99792458000000E+08
 Magnetic constant or permeability of vacuum [N/A**2]       1.25663706143592E-06
 Electric constant or permittivity of vacuum [F/m]          8.85418781762039E-12
 Planck constant (h) [J*s]                                  6.62606896000000E-34
 Planck constant (h-bar) [J*s]                              1.05457162825177E-34
 Elementary charge [C]                                      1.60217648700000E-19
 Electron mass [kg]                                         9.10938215000000E-31
 Electron g factor [ ]                                     -2.00231930436220E+00
 Proton mass [kg]                                           1.67262163700000E-27
 Fine-structure constant                                    7.29735253760000E-03
 Rydberg constant [1/m]                                     1.09737315685270E+07
 Avogadro constant [1/mol]                                  6.02214179000000E+23
 Boltzmann constant [J/K]                                   1.38065040000000E-23
 Atomic mass unit [kg]                                      1.66053878200000E-27
 Bohr radius [m]                                            5.29177208590000E-11

 *** Conversion factors ***

 [u] -> [a.u.]                                              1.82288848426455E+03
 [Angstrom] -> [Bohr] = [a.u.]                              1.88972613288564E+00
 [a.u.] = [Bohr] -> [Angstrom]                              5.29177208590000E-01
 [a.u.] -> [s]                                              2.41888432650478E-17
 [a.u.] -> [fs]                                             2.41888432650478E-02
 [a.u.] -> [J]                                              4.35974393937059E-18
 [a.u.] -> [N]                                              8.23872205491840E-08
 [a.u.] -> [K]                                              3.15774647902944E+05
 [a.u.] -> [kJ/mol]                                         2.62549961709828E+03
 [a.u.] -> [kcal/mol]                                       6.27509468713739E+02
 [a.u.] -> [Pa]                                             2.94210107994716E+13
 [a.u.] -> [bar]                                            2.94210107994716E+08
 [a.u.] -> [atm]                                            2.90362800883016E+08
 [a.u.] -> [eV]                                             2.72113838565563E+01
 [a.u.] -> [Hz]                                             6.57968392072181E+15
 [a.u.] -> [1/cm] (wave numbers)                            2.19474631370540E+05
 [a.u./Bohr**2] -> [1/cm]                                   5.14048714338585E+03
 

 CELL_TOP| Volume [angstrom^3]:                                     27000.000000
 CELL_TOP| Vector a [angstrom    30.000     0.000     0.000   |a| =    30.000000
 CELL_TOP| Vector b [angstrom     0.000    30.000     0.000   |b| =    30.000000
 CELL_TOP| Vector c [angstrom     0.000     0.000    30.000   |c| =    30.000000
 CELL_TOP| Angle (b,c), alpha [degree]:                                90.000000
 CELL_TOP| Angle (a,c), beta  [degree]:                                90.000000
 CELL_TOP| Angle (a,b), gamma [degree]:                                90.000000
 CELL_TOP| Numerically orthorhombic:                                         YES
 CELL_TOP| Periodicity                                                      NONE

 GENERATE|  Preliminary Number of Bonds generated:                             0
 GENERATE|  Achieved consistency in connectivity generation.

 CELL| Volume [angstrom^3]:                                         27000.000000
 CELL| Vector a [angstrom]:      30.000     0.000     0.000   |a| =    30.000000
 CELL| Vector b [angstrom]:       0.000    30.000     0.000   |b| =    30.000000
 CELL| Vector c [angstrom]:       0.000     0.000    30.000   |c| =    30.000000
 CELL| Angle (b,c), alpha [degree]:                                    90.000000
 CELL| Angle (a,c), beta  [degree]:                                    90.000000
 CELL| Angle (a,b), gamma [degree]:                                    90.000000
 CELL| Numerically orthorhombic:                                             YES
 CELL| Periodicity                                                          NONE

 CELL_REF| Volume [angstrom^3]:                                     27000.000000
 CELL_REF| Vector a [angstrom    30.000     0.000     0.000   |a| =    30.000000
 CELL_REF| Vector b [angstrom     0.000    30.000     0.000   |b| =    30.000000
 CELL_REF| Vector c [angstrom     0.000     0.000    30.000   |c| =    30.000000
 CELL_REF| Angle (b,c), alpha [degree]:                                90.000000
 CELL_REF| Angle (a,c), beta  [degree]:                                90.000000
 CELL_REF| Angle (a,b), gamma [degree]:                                90.000000
 CELL_REF| Numerically orthorhombic:                                         YES
 CELL_REF| Periodicity                                                      NONE

 *******************************************************************************
 *******************************************************************************
 **                                                                           **
 **     #####                         ##              ##                      **
 **    ##   ##            ##          ##              ##                      **
 **   ##     ##                       ##            ######                    **
 **   ##     ##  ##   ##  ##   #####  ##  ##   ####   ##    #####    #####    **
 **   ##     ##  ##   ##  ##  ##      ## ##   ##      ##   ##   ##  ##   ##   **
 **   ##  ## ##  ##   ##  ##  ##      ####     ###    ##   ######   ######    **
 **    ##  ###   ##   ##  ##  ##      ## ##      ##   ##   ##       ##        **
 **     #######   #####   ##   #####  ##  ##  ####    ##    #####   ##        **
 **           ##                                                    ##        **
 **                                                                           **
 **                                                ... make the atoms dance   **
 **                                                                           **
 **            Copyright (C) by CP2K developers group (2000-2025)             **
 **                      J. Chem. Phys. 152, 194103 (2020)                    **
 **                                                                           **
 *******************************************************************************

 DFT| Spin restricted Kohn-Sham (RKS) calculation                            RKS
 DFT| Multiplicity                                                             1
 DFT| Number of spin states                                                    1
 DFT| Charge                                                                   0
 DFT| Self-interaction correction (SIC)                                       NO
 DFT| Cutoffs: density                                              1.000000E-10
 DFT|          gradient                                             1.000000E-10
 DFT|          tau                                                  1.000000E-10
 DFT|          cutoff_smoothing_range                               0.000000E+00
 DFT| XC density smoothing                                                  NONE
 DFT| XC derivatives                                                          PW

 FUNCTIONAL| PBE:
 FUNCTIONAL| J.P.Perdew, K.Burke, M.Ernzerhof, Phys. Rev. Letter, vol. 77, n 18,
 FUNCTIONAL|  pp. 3865-3868, (1996)sx=0.750sc=1.000{spin unpolarized}           


 QS| Method:                                                                GAPW
 QS| Density plane wave grid type                        NON-SPHERICAL FULLSPACE
 QS| Number of grid levels:                                                    4
 QS| Density cutoff [a.u.]:                                                250.0
 QS| Multi grid cutoff [a.u.]: 1) grid level                               250.0
 QS|                           2) grid level                                83.3
 QS|                           3) grid level                                27.8
 QS|                           4) grid level                                 9.3
 QS| Grid level progression factor:                                          3.0
 QS| Relative density cutoff [a.u.]:                                        50.0
 QS| Interaction thresholds: eps_pgf_orb:                                1.0E-12
 QS|                         eps_filter_matrix:                          0.0E+00
 QS|                         eps_core_charge:                            1.0E-14
 QS|                         eps_rho_gspace:                             1.0E-12
 QS|                         eps_rho_rspace:                             1.0E-12
 QS|                         eps_gvg_rspace:                             1.0E-06
 QS|                         eps_ppl:                                    1.0E-02
 QS|                         eps_ppnl:                                   1.0E-08
 QS| GAPW|      One center basis from orbital basis primitives
 QS| GAPW|                   eps_fit:                                    1.0E-04
 QS| GAPW|                   eps_iso:                                    1.0E-12
 QS| GAPW|                   eps_svd:                                    1.0E-08
 QS| GAPW|                   eps_cpc:                                    1.0E-12
 QS| GAPW|   atom-r-grid: quadrature:                                     GC_LOG
 QS| GAPW|      atom-s-grid:  max l :                                         10
 QS| GAPW|      max_l_rho0 :                                                   2


 ATOMIC KIND INFORMATION

  1. Atomic kind: C                                     Number of atoms:       2

     Orbital Basis Set                                               aug-cc-pV5Z

       Number of orbital shell sets:                                          12
       Number of orbital shells:                                              27
       Number of primitive Cartesian functions:                               38
       Number of Cartesian basis functions:                                  182
       Number of spherical basis functions:                                  127
       Norm type:                                                              2

       Normalised Cartesian orbitals:

                        Set   Shell   Orbital            Exponent    Coefficient

                          1       1    1px               0.027200       0.015745
                          1       1    1py               0.027200       0.015745
                          1       1    1pz               0.027200       0.015745

                          2       1    1s                0.039400       0.063028

                          3       1    1dx2              0.070100       0.015719
                          3       1    1dxy              0.070100       0.027226
                          3       1    1dxz              0.070100       0.027226
                          3       1    1dy2              0.070100       0.015719
                          3       1    1dyz              0.070100       0.027226
                          3       1    1dz2              0.070100       0.015719

                          4       1    1px             101.800000       0.000000
                                                        24.040000       0.000000
                                                         7.571000       0.000000
                                                         2.732000       0.000000
                                                         1.085000       1.578437
                                                         0.449600       0.000000
                                                         0.187600       0.000000
                                                         0.076060       0.000000
                          4       1    1py             101.800000       0.000000
                                                        24.040000       0.000000
                                                         7.571000       0.000000
                                                         2.732000       0.000000
                                                         1.085000       1.578437
                                                         0.449600       0.000000
                                                         0.187600       0.000000
                                                         0.076060       0.000000
                          4       1    1pz             101.800000       0.000000
                                                        24.040000       0.000000
                                                         7.571000       0.000000
                                                         2.732000       0.000000
                                                         1.085000       1.578437
                                                         0.449600       0.000000
                                                         0.187600       0.000000
                                                         0.076060       0.000000

                          4       2    2px             101.800000       0.000000
                                                        24.040000       0.000000
                                                         7.571000       0.000000
                                                         2.732000       0.000000
                                                         1.085000       0.000000
                                                         0.449600       0.524775
                                                         0.187600       0.000000
                                                         0.076060       0.000000
                          4       2    2py             101.800000       0.000000
                                                        24.040000       0.000000
                                                         7.571000       0.000000
                                                         2.732000       0.000000
                                                         1.085000       0.000000
                                                         0.449600       0.524775
                                                         0.187600       0.000000
                                                         0.076060       0.000000
                          4       2    2pz             101.800000       0.000000
                                                        24.040000       0.000000
                                                         7.571000       0.000000
                                                         2.732000       0.000000
                                                         1.085000       0.000000
                                                         0.449600       0.524775
                                                         0.187600       0.000000
                                                         0.076060       0.000000

                          4       3    3px             101.800000       0.410679
                                                        24.040000       0.529315
                                                         7.571000       0.566912
                                                         2.732000       0.520714
                                                         1.085000       0.381402
                                                         0.449600       0.195188
                                                         0.187600       0.062335
                                                         0.076060       0.007491
                          4       3    3py             101.800000       0.410679
                                                        24.040000       0.529315
                                                         7.571000       0.566912
                                                         2.732000       0.520714
                                                         1.085000       0.381402
                                                         0.449600       0.195188
                                                         0.187600       0.062335
                                                         0.076060       0.007491
                          4       3    3pz             101.800000       0.410679
                                                        24.040000       0.529315
                                                         7.571000       0.566912
                                                         2.732000       0.520714
                                                         1.085000       0.381402
                                                         0.449600       0.195188
                                                         0.187600       0.062335
                                                         0.076060       0.007491

                          4       4    4px             101.800000       0.000000
                                                        24.040000       0.000000
                                                         7.571000       0.000000
                                                         2.732000       0.000000
                                                         1.085000       0.000000
                                                         0.449600       0.000000
                                                         0.187600       0.175987
                                                         0.076060       0.000000
                          4       4    4py             101.800000       0.000000
                                                        24.040000       0.000000
                                                         7.571000       0.000000
                                                         2.732000       0.000000
                                                         1.085000       0.000000
                                                         0.449600       0.000000
                                                         0.187600       0.175987
                                                         0.076060       0.000000
                          4       4    4pz             101.800000       0.000000
                                                        24.040000       0.000000
                                                         7.571000       0.000000
                                                         2.732000       0.000000
                                                         1.085000       0.000000
                                                         0.449600       0.000000
                                                         0.187600       0.175987
                                                         0.076060       0.000000

                          4       5    5px             101.800000       0.000000
                                                        24.040000       0.000000
                                                         7.571000       0.000000
                                                         2.732000       0.000000
                                                         1.085000       0.000000
                                                         0.449600       0.000000
                                                         0.187600       0.000000
                                                         0.076060       0.056936
                          4       5    5py             101.800000       0.000000
                                                        24.040000       0.000000
                                                         7.571000       0.000000
                                                         2.732000       0.000000
                                                         1.085000       0.000000
                                                         0.449600       0.000000
                                                         0.187600       0.000000
                                                         0.076060       0.056936
                          4       5    5pz             101.800000       0.000000
                                                        24.040000       0.000000
                                                         7.571000       0.000000
                                                         2.732000       0.000000
                                                         1.085000       0.000000
                                                         0.449600       0.000000
                                                         0.187600       0.000000
                                                         0.076060       0.056936

                          5       1    1s            96770.000000       0.097759
                                                     14500.000000       0.178933
                                                      3300.000000       0.310310
                                                       935.800000       0.504412
                                                       306.200000       0.775182
                                                       111.300000       1.106343
                                                        43.900000       1.416119
                                                        18.400000       1.521197
                                                         8.054000       1.222561
                                                         3.637000       0.551732
                                                         1.656000       0.080804
                                                         0.633300       0.001180
                                                         0.254500       0.000129
                                                         0.101900       0.000004

                          5       2    2s            96770.000000       0.000000
                                                     14500.000000       0.000000
                                                      3300.000000       0.000000
                                                       935.800000       0.000000
                                                       306.200000       0.000000
                                                       111.300000       0.000000
                                                        43.900000       0.000000
                                                        18.400000       0.000000
                                                         8.054000       0.000000
                                                         3.637000       0.000000
                                                         1.656000       1.040412
                                                         0.633300       0.000000
                                                         0.254500       0.000000
                                                         0.101900       0.000000

                          5       3    3s            96770.000000       0.000000
                                                     14500.000000       0.000000
                                                      3300.000000       0.000000
                                                       935.800000       0.000000
                                                       306.200000       0.000000
                                                       111.300000       0.000000
                                                        43.900000       0.000000
                                                        18.400000       0.000000
                                                         8.054000       0.000000
                                                         3.637000       0.000000
                                                         1.656000       0.000000
                                                         0.633300       0.505961
                                                         0.254500       0.000000
                                                         0.101900       0.000000

                          5       4    4s            96770.000000       0.000000
                                                     14500.000000       0.000000
                                                      3300.000000       0.000000
                                                       935.800000       0.000000
                                                       306.200000       0.000000
                                                       111.300000       0.000000
                                                        43.900000       0.000000
                                                        18.400000       0.000000
                                                         8.054000       0.000000
                                                         3.637000       0.000000
                                                         1.656000       0.000000
                                                         0.633300       0.000000
                                                         0.254500       0.255374
                                                         0.101900       0.000000

                          5       5    5s            96770.000000      -0.019552
                                                     14500.000000      -0.038612
                                                      3300.000000      -0.066096
                                                       935.800000      -0.108166
                                                       306.200000      -0.166263
                                                       111.300000      -0.243268
                                                        43.900000      -0.320591
                                                        18.400000      -0.379911
                                                         8.054000      -0.363992
                                                         3.637000      -0.270602
                                                         1.656000      -0.025640
                                                         0.633300       0.176585
                                                         0.254500       0.142687
                                                         0.101900       0.029320

                          5       6    6s            96770.000000       0.000000
                                                     14500.000000       0.000000
                                                      3300.000000       0.000000
                                                       935.800000       0.000000
                                                       306.200000       0.000000
                                                       111.300000       0.000000
                                                        43.900000       0.000000
                                                        18.400000       0.000000
                                                         8.054000       0.000000
                                                         3.637000       0.000000
                                                         1.656000       0.000000
                                                         0.633300       0.000000
                                                         0.254500       0.000000
                                                         0.101900       0.128541

                          6       1    1fx3              0.138000       0.017088
                          6       1    1fx2y             0.138000       0.038209
                          6       1    1fx2z             0.138000       0.038209
                          6       1    1fxy2             0.138000       0.038209
                          6       1    1fxyz             0.138000       0.066180
                          6       1    1fxz2             0.138000       0.038209
                          6       1    1fy3              0.138000       0.017088
                          6       1    1fy2z             0.138000       0.038209
                          6       1    1fyz2             0.138000       0.038209
                          6       1    1fz3              0.138000       0.017088

                          7       1    1dx2              3.134000      12.150179
                                                         1.233000       0.000000
                                                         0.485000       0.000000
                                                         0.191000       0.000000
                          7       1    1dxy              3.134000      21.044728
                                                         1.233000       0.000000
                                                         0.485000       0.000000
                                                         0.191000       0.000000
                          7       1    1dxz              3.134000      21.044728
                                                         1.233000       0.000000
                                                         0.485000       0.000000
                                                         0.191000       0.000000
                          7       1    1dy2              3.134000      12.150179
                                                         1.233000       0.000000
                                                         0.485000       0.000000
                                                         0.191000       0.000000
                          7       1    1dyz              3.134000      21.044728
                                                         1.233000       0.000000
                                                         0.485000       0.000000
                                                         0.191000       0.000000
                          7       1    1dz2              3.134000      12.150179
                                                         1.233000       0.000000
                                                         0.485000       0.000000
                                                         0.191000       0.000000

                          7       2    2dx2              3.134000       0.000000
                                                         1.233000       2.374624
                                                         0.485000       0.000000
                                                         0.191000       0.000000
                          7       2    2dxy              3.134000       0.000000
                                                         1.233000       4.112969
                                                         0.485000       0.000000
                                                         0.191000       0.000000
                          7       2    2dxz              3.134000       0.000000
                                                         1.233000       4.112969
                                                         0.485000       0.000000
                                                         0.191000       0.000000
                          7       2    2dy2              3.134000       0.000000
                                                         1.233000       2.374624
                                                         0.485000       0.000000
                                                         0.191000       0.000000
                          7       2    2dyz              3.134000       0.000000
                                                         1.233000       4.112969
                                                         0.485000       0.000000
                                                         0.191000       0.000000
                          7       2    2dz2              3.134000       0.000000
                                                         1.233000       2.374624
                                                         0.485000       0.000000
                                                         0.191000       0.000000

                          7       3    3dx2              3.134000       0.000000
                                                         1.233000       0.000000
                                                         0.485000       0.463935
                                                         0.191000       0.000000
                          7       3    3dxy              3.134000       0.000000
                                                         1.233000       0.000000
                                                         0.485000       0.803560
                                                         0.191000       0.000000
                          7       3    3dxz              3.134000       0.000000
                                                         1.233000       0.000000
                                                         0.485000       0.803560
                                                         0.191000       0.000000
                          7       3    3dy2              3.134000       0.000000
                                                         1.233000       0.000000
                                                         0.485000       0.463935
                                                         0.191000       0.000000
                          7       3    3dyz              3.134000       0.000000
                                                         1.233000       0.000000
                                                         0.485000       0.803560
                                                         0.191000       0.000000
                          7       3    3dz2              3.134000       0.000000
                                                         1.233000       0.000000
                                                         0.485000       0.463935
                                                         0.191000       0.000000

                          7       4    4dx2              3.134000       0.000000
                                                         1.233000       0.000000
                                                         0.485000       0.000000
                                                         0.191000       0.090828
                          7       4    4dxy              3.134000       0.000000
                                                         1.233000       0.000000
                                                         0.485000       0.000000
                                                         0.191000       0.157318
                          7       4    4dxz              3.134000       0.000000
                                                         1.233000       0.000000
                                                         0.485000       0.000000
                                                         0.191000       0.157318
                          7       4    4dy2              3.134000       0.000000
                                                         1.233000       0.000000
                                                         0.485000       0.000000
                                                         0.191000       0.090828
                          7       4    4dyz              3.134000       0.000000
                                                         1.233000       0.000000
                                                         0.485000       0.000000
                                                         0.191000       0.157318
                          7       4    4dz2              3.134000       0.000000
                                                         1.233000       0.000000
                                                         0.485000       0.000000
                                                         0.191000       0.090828

                          8       1    1gx4              0.319000       0.048068
                          8       1    1gx3y             0.319000       0.127177
                          8       1    1gx3z             0.319000       0.127177
                          8       1    1gx2y2            0.319000       0.164185
                          8       1    1gx2yz            0.319000       0.284377
                          8       1    1gx2z2            0.319000       0.164185
                          8       1    1gxy3             0.319000       0.127177
                          8       1    1gxy2z            0.319000       0.284377
                          8       1    1gxyz2            0.319000       0.284377
                          8       1    1gxz3             0.319000       0.127177
                          8       1    1gy4              0.319000       0.048068
                          8       1    1gy3z             0.319000       0.127177
                          8       1    1gy2z2            0.319000       0.164185
                          8       1    1gyz3             0.319000       0.127177
                          8       1    1gz4              0.319000       0.048068

                          9       1    1fx3              2.006000       7.050161
                                                         0.838000       0.000000
                                                         0.350000       0.000000
                          9       1    1fx2y             2.006000      15.764639
                                                         0.838000       0.000000
                                                         0.350000       0.000000
                          9       1    1fx2z             2.006000      15.764639
                                                         0.838000       0.000000
                                                         0.350000       0.000000
                          9       1    1fxy2             2.006000      15.764639
                                                         0.838000       0.000000
                                                         0.350000       0.000000
                          9       1    1fxyz             2.006000      27.305156
                                                         0.838000       0.000000
                                                         0.350000       0.000000
                          9       1    1fxz2             2.006000      15.764639
                                                         0.838000       0.000000
                                                         0.350000       0.000000
                          9       1    1fy3              2.006000       7.050161
                                                         0.838000       0.000000
                                                         0.350000       0.000000
                          9       1    1fy2z             2.006000      15.764639
                                                         0.838000       0.000000
                                                         0.350000       0.000000
                          9       1    1fyz2             2.006000      15.764639
                                                         0.838000       0.000000
                                                         0.350000       0.000000
                          9       1    1fz3              2.006000       7.050161
                                                         0.838000       0.000000
                                                         0.350000       0.000000

                          9       2    2fx3              2.006000       0.000000
                                                         0.838000       0.989130
                                                         0.350000       0.000000
                          9       2    2fx2y             2.006000       0.000000
                                                         0.838000       2.211763
                                                         0.350000       0.000000
                          9       2    2fx2z             2.006000       0.000000
                                                         0.838000       2.211763
                                                         0.350000       0.000000
                          9       2    2fxy2             2.006000       0.000000
                                                         0.838000       2.211763
                                                         0.350000       0.000000
                          9       2    2fxyz             2.006000       0.000000
                                                         0.838000       3.830885
                                                         0.350000       0.000000
                          9       2    2fxz2             2.006000       0.000000
                                                         0.838000       2.211763
                                                         0.350000       0.000000
                          9       2    2fy3              2.006000       0.000000
                                                         0.838000       0.989130
                                                         0.350000       0.000000
                          9       2    2fy2z             2.006000       0.000000
                                                         0.838000       2.211763
                                                         0.350000       0.000000
                          9       2    2fyz2             2.006000       0.000000
                                                         0.838000       2.211763
                                                         0.350000       0.000000
                          9       2    2fz3              2.006000       0.000000
                                                         0.838000       0.989130
                                                         0.350000       0.000000

                          9       3    3fx3              2.006000       0.000000
                                                         0.838000       0.000000
                                                         0.350000       0.138710
                          9       3    3fx2y             2.006000       0.000000
                                                         0.838000       0.000000
                                                         0.350000       0.310165
                          9       3    3fx2z             2.006000       0.000000
                                                         0.838000       0.000000
                                                         0.350000       0.310165
                          9       3    3fxy2             2.006000       0.000000
                                                         0.838000       0.000000
                                                         0.350000       0.310165
                          9       3    3fxyz             2.006000       0.000000
                                                         0.838000       0.000000
                                                         0.350000       0.537221
                          9       3    3fxz2             2.006000       0.000000
                                                         0.838000       0.000000
                                                         0.350000       0.310165
                          9       3    3fy3              2.006000       0.000000
                                                         0.838000       0.000000
                                                         0.350000       0.138710
                          9       3    3fy2z             2.006000       0.000000
                                                         0.838000       0.000000
                                                         0.350000       0.310165
                          9       3    3fyz2             2.006000       0.000000
                                                         0.838000       0.000000
                                                         0.350000       0.310165
                          9       3    3fz3              2.006000       0.000000
                                                         0.838000       0.000000
                                                         0.350000       0.138710

                         10       1    1hx5              0.586000       0.130621
                         10       1    1hx4y             0.586000       0.391862
                         10       1    1hx4z             0.586000       0.391862
                         10       1    1hx3y2            0.586000       0.598578
                         10       1    1hx3yz            0.586000       1.036768
                         10       1    1hx3z2            0.586000       0.598578
                         10       1    1hx2y3            0.586000       0.598578
                         10       1    1hx2y2z           0.586000       1.338462
                         10       1    1hx2yz2           0.586000       1.338462
                         10       1    1hx2z3            0.586000       0.598578
                         10       1    1hxy4             0.586000       0.391862
                         10       1    1hxy3z            0.586000       1.036768
                         10       1    1hxy2z2           0.586000       1.338462
                         10       1    1hxyz3            0.586000       1.036768
                         10       1    1hxz4             0.586000       0.391862
                         10       1    1hy5              0.586000       0.130621
                         10       1    1hy4z             0.586000       0.391862
                         10       1    1hy3z2            0.586000       0.598578
                         10       1    1hy2z3            0.586000       0.598578
                         10       1    1hyz4             0.586000       0.391862
                         10       1    1hz5              0.586000       0.130621

                         11       1    1gx4              1.753000       5.209976
                                                         0.678000       0.000000
                         11       1    1gx3y             1.753000      13.784300
                                                         0.678000       0.000000
                         11       1    1gx3z             1.753000      13.784300
                                                         0.678000       0.000000
                         11       1    1gx2y2            1.753000      17.795455
                                                         0.678000       0.000000
                         11       1    1gx2yz            1.753000      30.822632
                                                         0.678000       0.000000
                         11       1    1gx2z2            1.753000      17.795455
                                                         0.678000       0.000000
                         11       1    1gxy3             1.753000      13.784300
                                                         0.678000       0.000000
                         11       1    1gxy2z            1.753000      30.822632
                                                         0.678000       0.000000
                         11       1    1gxyz2            1.753000      30.822632
                                                         0.678000       0.000000
                         11       1    1gxz3             1.753000      13.784300
                                                         0.678000       0.000000
                         11       1    1gy4              1.753000       5.209976
                                                         0.678000       0.000000
                         11       1    1gy3z             1.753000      13.784300
                                                         0.678000       0.000000
                         11       1    1gy2z2            1.753000      17.795455
                                                         0.678000       0.000000
                         11       1    1gyz3             1.753000      13.784300
                                                         0.678000       0.000000
                         11       1    1gz4              1.753000       5.209976
                                                         0.678000       0.000000

                         11       2    2gx4              1.753000       0.000000
                                                         0.678000       0.382223
                         11       2    2gx3y             1.753000       0.000000
                                                         0.678000       1.011268
                         11       2    2gx3z             1.753000       0.000000
                                                         0.678000       1.011268
                         11       2    2gx2y2            1.753000       0.000000
                                                         0.678000       1.305541
                         11       2    2gx2yz            1.753000       0.000000
                                                         0.678000       2.261263
                         11       2    2gx2z2            1.753000       0.000000
                                                         0.678000       1.305541
                         11       2    2gxy3             1.753000       0.000000
                                                         0.678000       1.011268
                         11       2    2gxy2z            1.753000       0.000000
                                                         0.678000       2.261263
                         11       2    2gxyz2            1.753000       0.000000
                                                         0.678000       2.261263
                         11       2    2gxz3             1.753000       0.000000
                                                         0.678000       1.011268
                         11       2    2gy4              1.753000       0.000000
                                                         0.678000       0.382223
                         11       2    2gy3z             1.753000       0.000000
                                                         0.678000       1.011268
                         11       2    2gy2z2            1.753000       0.000000
                                                         0.678000       1.305541
                         11       2    2gyz3             1.753000       0.000000
                                                         0.678000       1.011268
                         11       2    2gz4              1.753000       0.000000
                                                         0.678000       0.382223

                         12       1    1hx5              1.259000       1.568295
                         12       1    1hx4y             1.259000       4.704885
                         12       1    1hx4z             1.259000       4.704885
                         12       1    1hx3y2            1.259000       7.186831
                         12       1    1hx3yz            1.259000      12.447957
                         12       1    1hx3z2            1.259000       7.186831
                         12       1    1hx2y3            1.259000       7.186831
                         12       1    1hx2y2z           1.259000      16.070243
                         12       1    1hx2yz2           1.259000      16.070243
                         12       1    1hx2z3            1.259000       7.186831
                         12       1    1hxy4             1.259000       4.704885
                         12       1    1hxy3z            1.259000      12.447957
                         12       1    1hxy2z2           1.259000      16.070243
                         12       1    1hxyz3            1.259000      12.447957
                         12       1    1hxz4             1.259000       4.704885
                         12       1    1hy5              1.259000       1.568295
                         12       1    1hy4z             1.259000       4.704885
                         12       1    1hy3z2            1.259000       7.186831
                         12       1    1hy2z3            1.259000       7.186831
                         12       1    1hyz4             1.259000       4.704885
                         12       1    1hz5              1.259000       1.568295

     RI Auxiliary Basis Set                                    aug-cc-pV5Z-OPTRI

       Number of orbital shell sets:                                          22
       Number of orbital shells:                                              22
       Number of primitive Cartesian functions:                               22
       Number of Cartesian basis functions:                                  188
       Number of spherical basis functions:                                  122
       Norm type:                                                              2

       Normalised Cartesian orbitals:

                        Set   Shell   Orbital            Exponent    Coefficient

                          1       1    1gx4              0.114786       0.002892
                          1       1    1gx3y             0.114786       0.007650
                          1       1    1gx3z             0.114786       0.007650
                          1       1    1gx2y2            0.114786       0.009877
                          1       1    1gx2yz            0.114786       0.017107
                          1       1    1gx2z2            0.114786       0.009877
                          1       1    1gxy3             0.114786       0.007650
                          1       1    1gxy2z            0.114786       0.017107
                          1       1    1gxyz2            0.114786       0.017107
                          1       1    1gxz3             0.114786       0.007650
                          1       1    1gy4              0.114786       0.002892
                          1       1    1gy3z             0.114786       0.007650
                          1       1    1gy2z2            0.114786       0.009877
                          1       1    1gyz3             0.114786       0.007650
                          1       1    1gz4              0.114786       0.002892

                          2       1    1px               0.121920       0.102691
                          2       1    1py               0.121920       0.102691
                          2       1    1pz               0.121920       0.102691

                          3       1    1s                0.152658       0.174060

                          4       1    1px               0.299745       0.316140
                          4       1    1py               0.299745       0.316140
                          4       1    1pz               0.299745       0.316140

                          5       1    1s                0.384933       0.348296

                          6       1    1hx5              0.391317       0.035161
                          6       1    1hx4y             0.391317       0.105483
                          6       1    1hx4z             0.391317       0.105483
                          6       1    1hx3y2            0.391317       0.161128
                          6       1    1hx3yz            0.391317       0.279083
                          6       1    1hx3z2            0.391317       0.161128
                          6       1    1hx2y3            0.391317       0.161128
                          6       1    1hx2y2z           0.391317       0.360294
                          6       1    1hx2yz2           0.391317       0.360294
                          6       1    1hx2z3            0.391317       0.161128
                          6       1    1hxy4             0.391317       0.105483
                          6       1    1hxy3z            0.391317       0.279083
                          6       1    1hxy2z2           0.391317       0.360294
                          6       1    1hxyz3            0.391317       0.279083
                          6       1    1hxz4             0.391317       0.105483
                          6       1    1hy5              0.391317       0.035161
                          6       1    1hy4z             0.391317       0.105483
                          6       1    1hy3z2            0.391317       0.161128
                          6       1    1hy2z3            0.391317       0.161128
                          6       1    1hyz4             0.391317       0.105483
                          6       1    1hz5              0.391317       0.035161

                          7       1    1fx3              0.540840       0.369283
                          7       1    1fx2y             0.540840       0.825742
                          7       1    1fx2z             0.540840       0.825742
                          7       1    1fxy2             0.540840       0.825742
                          7       1    1fxyz             0.540840       1.430227
                          7       1    1fxz2             0.540840       0.825742
                          7       1    1fy3              0.540840       0.369283
                          7       1    1fy2z             0.540840       0.825742
                          7       1    1fyz2             0.540840       0.825742
                          7       1    1fz3              0.540840       0.369283

                          8       1    1px               0.678328       0.877485
                          8       1    1py               0.678328       0.877485
                          8       1    1pz               0.678328       0.877485

                          9       1    1dx2              0.754246       1.004748
                          9       1    1dxy              0.754246       1.740275
                          9       1    1dxz              0.754246       1.740275
                          9       1    1dy2              0.754246       1.004748
                          9       1    1dyz              0.754246       1.740275
                          9       1    1dz2              0.754246       1.004748

                         10       1    1gx4              1.012792       1.152434
                         10       1    1gx3y             1.012792       3.049054
                         10       1    1gx3z             1.012792       3.049054
                         10       1    1gx2y2            1.012792       3.936312
                         10       1    1gx2yz            1.012792       6.817893
                         10       1    1gx2z2            1.012792       3.936312
                         10       1    1gxy3             1.012792       3.049054
                         10       1    1gxy2z            1.012792       6.817893
                         10       1    1gxyz2            1.012792       6.817893
                         10       1    1gxz3             1.012792       3.049054
                         10       1    1gy4              1.012792       1.152434
                         10       1    1gy3z             1.012792       3.049054
                         10       1    1gy2z2            1.012792       3.936312
                         10       1    1gyz3             1.012792       3.049054
                         10       1    1gz4              1.012792       1.152434

                         11       1    1s                1.103587       0.767388

                         12       1    1ix6              1.245967       1.020534
                         12       1    1ix5y             1.245967       3.384727
                         12       1    1ix5z             1.245967       3.384727
                         12       1    1ix4y2            1.245967       5.862520
                         12       1    1ix4yz            1.245967      10.154182
                         12       1    1ix4z2            1.245967       5.862520
                         12       1    1ix3y3            1.245967       6.936627
                         12       1    1ix3y2z           1.245967      15.510769
                         12       1    1ix3yz2           1.245967      15.510769
                         12       1    1ix3z3            1.245967       6.936627
                         12       1    1ix2y4            1.245967       5.862520
                         12       1    1ix2y3z           1.245967      15.510769
                         12       1    1ix2y2z2          1.245967      20.024317
                         12       1    1ix2yz3           1.245967      15.510769
                         12       1    1ix2z4            1.245967       5.862520
                         12       1    1ixy5             1.245967       3.384727
                         12       1    1ixy4z            1.245967      10.154182
                         12       1    1ixy3z2           1.245967      15.510769
                         12       1    1ixy2z3           1.245967      15.510769
                         12       1    1ixyz4            1.245967      10.154182
                         12       1    1ixz5             1.245967       3.384727
                         12       1    1iy6              1.245967       1.020534
                         12       1    1iy5z             1.245967       3.384727
                         12       1    1iy4z2            1.245967       5.862520
                         12       1    1iy3z3            1.245967       6.936627
                         12       1    1iy2z4            1.245967       5.862520
                         12       1    1iyz5             1.245967       3.384727
                         12       1    1iz6              1.245967       1.020534

                         13       1    1fx3              1.255807       2.457712
                         13       1    1fx2y             1.255807       5.495611
                         13       1    1fx2z             1.255807       5.495611
                         13       1    1fxy2             1.255807       5.495611
                         13       1    1fxyz             1.255807       9.518677
                         13       1    1fxz2             1.255807       5.495611
                         13       1    1fy3              1.255807       2.457712
                         13       1    1fy2z             1.255807       5.495611
                         13       1    1fyz2             1.255807       5.495611
                         13       1    1fz3              1.255807       2.457712

                         14       1    1px               1.626163       2.617551
                         14       1    1py               1.626163       2.617551
                         14       1    1pz               1.626163       2.617551

                         15       1    1dx2              1.990505       5.490289
                         15       1    1dxy              1.990505       9.509459
                         15       1    1dxz              1.990505       9.509459
                         15       1    1dy2              1.990505       5.490289
                         15       1    1dyz              1.990505       9.509459
                         15       1    1dz2              1.990505       5.490289

                         16       1    1hx5              2.339630      11.750937
                         16       1    1hx4y             2.339630      35.252812
                         16       1    1hx4z             2.339630      35.252812
                         16       1    1hx3y2            2.339630      53.849559
                         16       1    1hx3yz            2.339630      93.270173
                         16       1    1hx3z2            2.339630      53.849559
                         16       1    1hx2y3            2.339630      53.849559
                         16       1    1hx2y2z           2.339630     120.411275
                         16       1    1hx2yz2           2.339630     120.411275
                         16       1    1hx2z3            2.339630      53.849559
                         16       1    1hxy4             2.339630      35.252812
                         16       1    1hxy3z            2.339630      93.270173
                         16       1    1hxy2z2           2.339630     120.411275
                         16       1    1hxyz3            2.339630      93.270173
                         16       1    1hxz4             2.339630      35.252812
                         16       1    1hy5              2.339630      11.750937
                         16       1    1hy4z             2.339630      35.252812
                         16       1    1hy3z2            2.339630      53.849559
                         16       1    1hy2z3            2.339630      53.849559
                         16       1    1hyz4             2.339630      35.252812
                         16       1    1hz5              2.339630      11.750937

                         17       1    1gx4              3.524920      35.570986
                         17       1    1gx3y             3.524920      94.111983
                         17       1    1gx3z             3.524920      94.111983
                         17       1    1gx2y2            3.524920     121.498047
                         17       1    1gx2yz            3.524920     210.440791
                         17       1    1gx2z2            3.524920     121.498047
                         17       1    1gxy3             3.524920      94.111983
                         17       1    1gxy2z            3.524920     210.440791
                         17       1    1gxyz2            3.524920     210.440791
                         17       1    1gxz3             3.524920      94.111983
                         17       1    1gy4              3.524920      35.570986
                         17       1    1gy3z             3.524920      94.111983
                         17       1    1gy2z2            3.524920     121.498047
                         17       1    1gyz3             3.524920      94.111983
                         17       1    1gz4              3.524920      35.570986

                         18       1    1px               4.160664       8.470195
                         18       1    1py               4.160664       8.470195
                         18       1    1pz               4.160664       8.470195

                         19       1    1s                4.500495       2.202193

                         20       1    1fx3              4.904034      52.686550
                         20       1    1fx2y             4.904034     117.810708
                         20       1    1fx2z             4.904034     117.810708
                         20       1    1fxy2             4.904034     117.810708
                         20       1    1fxyz             4.904034     204.054131
                         20       1    1fxz2             4.904034     117.810708
                         20       1    1fy3              4.904034      52.686550
                         20       1    1fy2z             4.904034     117.810708
                         20       1    1fyz2             4.904034     117.810708
                         20       1    1fz3              4.904034      52.686550

                         21       1    1dx2              5.244543      29.915609
                         21       1    1dxy              5.244543      51.815354
                         21       1    1dxz              5.244543      51.815354
                         21       1    1dy2              5.244543      29.915609
                         21       1    1dyz              5.244543      51.815354
                         21       1    1dz2              5.244543      29.915609

                         22       1    1dx2             10.138089      94.805303
                         22       1    1dxy             10.138089     164.207602
                         22       1    1dxz             10.138089     164.207602
                         22       1    1dy2             10.138089      94.805303
                         22       1    1dyz             10.138089     164.207602
                         22       1    1dz2             10.138089      94.805303

       Atomic covalent radius [Angstrom]:                                  0.770

       Atomic van der Waals radius [Angstrom]:                             1.700

     The atoms of this atomic kind are PAW atoms (GAPW):
       Hard Gaussian function radius:                                      1.512
       Rho0 radius:                                                        1.512
       Maximum GTO radius used for PAW projector construction:            24.566

     GAPW Soft Basis Set                                        aug-cc-pV5Z_soft

       Number of orbital shell sets:                                          12
       Number of orbital shells:                                              27
       Number of primitive Cartesian functions:                               26
       Number of Cartesian basis functions:                                  182
       Number of spherical basis functions:                                  127
       Norm type:                                                              2

       Normalised Cartesian orbitals:

                        Set   Shell   Orbital            Exponent    Coefficient

                          1       1    1px               0.027200       0.015745
                          1       1    1py               0.027200       0.015745
                          1       1    1pz               0.027200       0.015745

                          2       1    1s                0.039400       0.063028

                          3       1    1dx2              0.070100       0.015719
                          3       1    1dxy              0.070100       0.027226
                          3       1    1dxz              0.070100       0.027226
                          3       1    1dy2              0.070100       0.015719
                          3       1    1dyz              0.070100       0.027226
                          3       1    1dz2              0.070100       0.015719

                          4       1    1px               2.732000       0.000000
                                                         1.085000       1.578437
                                                         0.449600       0.000000
                                                         0.187600       0.000000
                                                         0.076060       0.000000
                          4       1    1py               2.732000       0.000000
                                                         1.085000       1.578437
                                                         0.449600       0.000000
                                                         0.187600       0.000000
                                                         0.076060       0.000000
                          4       1    1pz               2.732000       0.000000
                                                         1.085000       1.578437
                                                         0.449600       0.000000
                                                         0.187600       0.000000
                                                         0.076060       0.000000

                          4       2    2px               2.732000       0.000000
                                                         1.085000       0.000000
                                                         0.449600       0.524775
                                                         0.187600       0.000000
                                                         0.076060       0.000000
                          4       2    2py               2.732000       0.000000
                                                         1.085000       0.000000
                                                         0.449600       0.524775
                                                         0.187600       0.000000
                                                         0.076060       0.000000
                          4       2    2pz               2.732000       0.000000
                                                         1.085000       0.000000
                                                         0.449600       0.524775
                                                         0.187600       0.000000
                                                         0.076060       0.000000

                          4       3    3px               2.732000       0.520714
                                                         1.085000       0.381402
                                                         0.449600       0.195188
                                                         0.187600       0.062335
                                                         0.076060       0.007491
                          4       3    3py               2.732000       0.520714
                                                         1.085000       0.381402
                                                         0.449600       0.195188
                                                         0.187600       0.062335
                                                         0.076060       0.007491
                          4       3    3pz               2.732000       0.520714
[...]
 *    |             please set the keyword IGNORE_CONVERGENCE_FAILURE.         *
 *  O/|                                                                        *
 * /| |                                                                        *
 * / \                                                            qs_scf.F:611 *
 *******************************************************************************


 ===== Routine Calling Stack ===== 

            3 scf_env_do_scf
            2 qs_energies
            1 CP2K

 *******************************************************************************
 *   ___                                                                       *
 *  /   \                                                                      *
 * [ABORT]                                                                     *
 *  \___/     SCF run NOT converged. To continue the calculation regardless,   *
 *    |             please set the keyword IGNORE_CONVERGENCE_FAILURE.         *
 *  O/|                                                                        *
 * /| |                                                                        *
 * / \                                                            qs_scf.F:611 *
 *******************************************************************************


 ===== Routine Calling Stack ===== 

            3 scf_env_do_scf
            2 qs_energies
            1 CP2K

 *******************************************************************************
 *   ___                                                                       *
 *  /   \                                                                      *
 * [ABORT]                                                                     *
 *  \___/     SCF run NOT converged. To continue the calculation regardless,   *
 *    |             please set the keyword IGNORE_CONVERGENCE_FAILURE.         *
 *  O/|                                                                        *
 * /| |                                                                        *
 * / \                                                            qs_scf.F:611 *
 *******************************************************************************


 ===== Routine Calling Stack ===== 

            3 scf_env_do_scf
            2 qs_energies
            1 CP2K

 *******************************************************************************
 *   ___                                                                       *
 *  /   \                                                                      *
 * [ABORT]                                                                     *
 *  \___/     SCF run NOT converged. To continue the calculation regardless,   *
 *    |             please set the keyword IGNORE_CONVERGENCE_FAILURE.         *
 *  O/|                                                                        *
 * /| |                                                                        *
 * / \                                                            qs_scf.F:611 *
 *******************************************************************************


 ===== Routine Calling Stack ===== 

            3 scf_env_do_scf
            2 qs_energies
            1 CP2K

 *******************************************************************************
 *   ___                                                                       *
 *  /   \                                                                      *
 * [ABORT]                                                                     *
 *  \___/     SCF run NOT converged. To continue the calculation regardless,   *
 *    |             please set the keyword IGNORE_CONVERGENCE_FAILURE.         *
 *  O/|                                                                        *
 * /| |                                                                        *
 * / \                                                            qs_scf.F:611 *
 *******************************************************************************


 ===== Routine Calling Stack ===== 

            3 scf_env_do_scf
            2 qs_energies
            1 CP2K

 *******************************************************************************
 *   ___                                                                       *
 *  /   \                                                                      *
 * [ABORT]                                                                     *
 *  \___/     SCF run NOT converged. To continue the calculation regardless,   *
 *    |             please set the keyword IGNORE_CONVERGENCE_FAILURE.         *
 *  O/|                                                                        *
 * /| |                                                                        *
 * / \                                                            qs_scf.F:611 *
 *******************************************************************************


 ===== Routine Calling Stack ===== 

            3 scf_env_do_scf
            2 qs_energies
            1 CP2K

 *******************************************************************************
 *   ___                                                                       *
 *  /   \                                                                      *
 * [ABORT]                                                                     *
 *  \___/     SCF run NOT converged. To continue the calculation regardless,   *
 *    |             please set the keyword IGNORE_CONVERGENCE_FAILURE.         *
 *  O/|                                                                        *
 * /| |                                                                        *
 * / \                                                            qs_scf.F:611 *
 *******************************************************************************


 ===== Routine Calling Stack ===== 

            3 scf_env_do_scf
            2 qs_energies
            1 CP2K

 *******************************************************************************
 *   ___                                                                       *
 *  /   \                                                                      *
 * [ABORT]                                                                     *
 *  \___/     SCF run NOT converged. To continue the calculation regardless,   *
 *    |             please set the keyword IGNORE_CONVERGENCE_FAILURE.         *
 *  O/|                                                                        *
 * /| |                                                                        *
 * / \                                                            qs_scf.F:611 *
 *******************************************************************************


 ===== Routine Calling Stack ===== 

            3 scf_env_do_scf
            2 qs_energies
            1 CP2K

 *******************************************************************************
 *   ___                                                                       *
 *  /   \                                                                      *
 * [ABORT]                                                                     *
 *  \___/     SCF run NOT converged. To continue the calculation regardless,   *
 *    |             please set the keyword IGNORE_CONVERGENCE_FAILURE.         *
 *  O/|                                                                        *
 * /| |                                                                        *
 * / \                                                            qs_scf.F:611 *
 *******************************************************************************


 ===== Routine Calling Stack ===== 

            3 scf_env_do_scf
            2 qs_energies
            1 CP2K

 *******************************************************************************
 *   ___                                                                       *
 *  /   \                                                                      *
 * [ABORT]                                                                     *
 *  \___/     SCF run NOT converged. To continue the calculation regardless,   *
 *    |             please set the keyword IGNORE_CONVERGENCE_FAILURE.         *
 *  O/|                                                                        *
 * /| |                                                                        *
 * / \                                                            qs_scf.F:611 *
 *******************************************************************************


 ===== Routine Calling Stack ===== 

            3 scf_env_do_scf
            2 qs_energies
            1 CP2K

 *******************************************************************************
 *   ___                                                                       *
 *  /   \                                                                      *
 * [ABORT]                                                                     *
 *  \___/     SCF run NOT converged. To continue the calculation regardless,   *
 *    |             please set the keyword IGNORE_CONVERGENCE_FAILURE.         *
 *  O/|                                                                        *
 * /| |                                                                        *
 * / \                                                            qs_scf.F:611 *
 *******************************************************************************


 ===== Routine Calling Stack ===== 

            3 scf_env_do_scf
            2 qs_energies
            1 CP2K

 *******************************************************************************
 *   ___                                                                       *
 *  /   \                                                                      *
 * [ABORT]                                                                     *
 *  \___/     SCF run NOT converged. To continue the calculation regardless,   *
 *    |             please set the keyword IGNORE_CONVERGENCE_FAILURE.         *
 *  O/|                                                                        *
 * /| |                                                                        *
 * / \                                                            qs_scf.F:611 *
 *******************************************************************************


 ===== Routine Calling Stack ===== 

            3 scf_env_do_scf
            2 qs_energies
            1 CP2K

 *******************************************************************************
 *   ___                                                                       *
 *  /   \                                                                      *
 * [ABORT]                                                                     *
 *  \___/     SCF run NOT converged. To continue the calculation regardless,   *
 *    |             please set the keyword IGNORE_CONVERGENCE_FAILURE.         *
 *  O/|                                                                        *
 * /| |                                                                        *
 * / \                                                            qs_scf.F:611 *
 *******************************************************************************


 ===== Routine Calling Stack ===== 

            3 scf_env_do_scf
            2 qs_energies
            1 CP2K

 *******************************************************************************
 *   ___                                                                       *
 *  /   \                                                                      *
 * [ABORT]                                                                     *
 *  \___/     SCF run NOT converged. To continue the calculation regardless,   *
 *    |             please set the keyword IGNORE_CONVERGENCE_FAILURE.         *
 *  O/|                                                                        *
 * /| |                                                                        *
 * / \                                                            qs_scf.F:611 *
 *******************************************************************************


 ===== Routine Calling Stack ===== 

            3 scf_env_do_scf
            2 qs_energies
            1 CP2K

 *******************************************************************************
 *   ___                                                                       *
 *  /   \                                                                      *
 * [ABORT]                                                                     *
 *  \___/     SCF run NOT converged. To continue the calculation regardless,   *
 *    |             please set the keyword IGNORE_CONVERGENCE_FAILURE.         *
 *  O/|                                                                        *
 * /| |                                                                        *
 * / \                                                            qs_scf.F:611 *
 *******************************************************************************


 ===== Routine Calling Stack ===== 

            3 scf_env_do_scf
            2 qs_energies
            1 CP2K

 *******************************************************************************
 *   ___                                                                       *
 *  /   \                                                                      *
 * [ABORT]                                                                     *
 *  \___/     SCF run NOT converged. To continue the calculation regardless,   *
 *    |             please set the keyword IGNORE_CONVERGENCE_FAILURE.         *
 *  O/|                                                                        *
 * /| |                                                                        *
 * / \                                                            qs_scf.F:611 *
 *******************************************************************************


 ===== Routine Calling Stack ===== 

            3 scf_env_do_scf
            2 qs_energies
            1 CP2K

 *******************************************************************************
 *   ___                                                                       *
 *  /   \                                                                      *
 * [ABORT]                                                                     *
 *  \___/     SCF run NOT converged. To continue the calculation regardless,   *
 *    |             please set the keyword IGNORE_CONVERGENCE_FAILURE.         *
 *  O/|                                                                        *
 * /| |                                                                        *
 * / \                                                            qs_scf.F:611 *
 *******************************************************************************


 ===== Routine Calling Stack ===== 

            3 scf_env_do_scf
            2 qs_energies
            1 CP2K

 *******************************************************************************
 *   ___                                                                       *
 *  /   \                                                                      *
 * [ABORT]                                                                     *
 *  \___/     SCF run NOT converged. To continue the calculation regardless,   *
 *    |             please set the keyword IGNORE_CONVERGENCE_FAILURE.         *
 *  O/|                                                                        *
 * /| |                                                                        *
 * / \                                                            qs_scf.F:611 *
 *******************************************************************************


 ===== Routine Calling Stack ===== 

            3 scf_env_do_scf
            2 qs_energies
            1 CP2K

 *******************************************************************************
 *   ___                                                                       *
 *  /   \                                                                      *
 * [ABORT]                                                                     *
 *  \___/     SCF run NOT converged. To continue the calculation regardless,   *
 *    |             please set the keyword IGNORE_CONVERGENCE_FAILURE.         *
 *  O/|                                                                        *
 * /| |                                                                        *
 * / \                                                            qs_scf.F:611 *
 *******************************************************************************


 ===== Routine Calling Stack ===== 

            3 scf_env_do_scf
            2 qs_energies
            1 CP2K

 *******************************************************************************
 *   ___                                                                       *
 *  /   \                                                                      *
 * [ABORT]                                                                     *
 *  \___/     SCF run NOT converged. To continue the calculation regardless,   *
 *    |             please set the keyword IGNORE_CONVERGENCE_FAILURE.         *
 *  O/|                                                                        *
 * /| |                                                                        *
 * / \                                                            qs_scf.F:611 *
 *******************************************************************************


 ===== Routine Calling Stack ===== 

            3 scf_env_do_scf
            2 qs_energies
            1 CP2K

 *******************************************************************************
 *   ___                                                                       *
 *  /   \                                                                      *
 * [ABORT]                                                                     *
 *  \___/     SCF run NOT converged. To continue the calculation regardless,   *
 *    |             please set the keyword IGNORE_CONVERGENCE_FAILURE.         *
 *  O/|                                                                        *
 * /| |                                                                        *
 * / \                                                            qs_scf.F:611 *
 *******************************************************************************


 ===== Routine Calling Stack ===== 

            3 scf_env_do_scf
            2 qs_energies
            1 CP2K

 *******************************************************************************
 *   ___                                                                       *
 *  /   \                                                                      *
 * [ABORT]                                                                     *
 *  \___/     SCF run NOT converged. To continue the calculation regardless,   *
 *    |             please set the keyword IGNORE_CONVERGENCE_FAILURE.         *
 *  O/|                                                                        *
 * /| |                                                                        *
 * / \                                                            qs_scf.F:611 *
 *******************************************************************************


 ===== Routine Calling Stack ===== 

            3 scf_env_do_scf
            2 qs_energies
            1 CP2K
