 DBCSR| CPU Multiplication driver                                           BLAS (U)
 DBCSR| Multrec recursion limit                                              512 (U)
 DBCSR| Multiplication stack size                                           1000 (D)
 DBCSR| Maximum elements for images                                    UNLIMITED (U)
 DBCSR| Multiplicative factor virtual images                                   1 (U)
 DBCSR| Use multiplication densification                                       T (D)
 DBCSR| Multiplication size stacks                                             3 (U)
 DBCSR| Use memory pool for CPU allocation                                     F (U)
 DBCSR| Number of 3D layers                                               SINGLE (U)
 DBCSR| Use MPI memory allocation                                              F (U)
 DBCSR| Use RMA algorithm                                                      F (U)
 DBCSR| Use Communication thread                                               T (U)
 DBCSR| Communication thread load                                             75 (D)
 DBCSR| MPI: My process id                                                     0
 DBCSR| MPI: Number of processes                                              24
 DBCSR| OMP: Current number of threads                                         4
 DBCSR| OMP: Max number of threads                                             4
 DBCSR| Split modifier for TAS multiplication algorithm                  1.0E+00 (U)


  **** **** ******  **  PROGRAM STARTED AT               2025-03-03 06:25:49.408
 ***** ** ***  *** **   PROGRAM STARTED ON                          i01r03c06s05
 **    ****   ******    PROGRAM STARTED BY                               di38fab
 ***** **    ** ** **   PROGRAM PROCESS ID                               3979438
  **** **  *******  **  PROGRAM STARTED IN /hppfs/scratch/04/di38fab/05_MOL/W4-1
                                           1+ALK/nh/SZV

 CP2K| version string:                 CP2K version 2025.1 (Development Version)
 CP2K| source code revision number:                                  git:47877ba
 CP2K| cp2kflags: omp libint fftw3 libxc parallel scalapack max_contr=4         
 CP2K| is freely available from                            https://www.cp2k.org/
 CP2K| Program compiled at                          Thu Feb 20 16:00:34 CET 2025
 CP2K| Program compiled on                                               login04
 CP2K| Program compiled for                                        Supermuc-foss
 CP2K| Data directory path          /hppfs/work/pn36zo/di38fab/newcp2k/cp2k/data
 CP2K| Input file name                                                    GW.inp

 GLOBAL| Force Environment number                                              1
 GLOBAL| Basis set file name            /hppfs/scratch/04/di38fab/04_TMD/BASIS_A
 GLOBAL| Potential file name            /hppfs/work/pn36zo/di38fab/cp2k/data/ALL
 GLOBAL| MM Potential file name                                     MM_POTENTIAL
 GLOBAL| Coordinate file name                                      __STD_INPUT__
 GLOBAL| Method name                                                        CP2K
 GLOBAL| Project name                                                       MoS2
 GLOBAL| Run type                                                         ENERGY
 GLOBAL| FFT library                                                       FFTW3
 GLOBAL| Diagonalization library                                       ScaLAPACK
 GLOBAL| DGEMM library                                                      BLAS
 GLOBAL| Orthonormality check for eigenvectors                          DISABLED
 GLOBAL| Matrix multiplication library                                 ScaLAPACK
 GLOBAL| All-to-all communication in single precision                          F
 GLOBAL| FFTs using library dependent lengths                                  F
 GLOBAL| Grid backend                                                       AUTO
 GLOBAL| Global print level                                               MEDIUM
 GLOBAL| MPI I/O enabled                                                       T
 GLOBAL| Total number of message passing processes                            24
 GLOBAL| Number of threads for this process                                    4
 GLOBAL| This output is from process                                           0
 GLOBAL| OpenMP stack size per thread (OMP_STACKSIZE)                    default
 GLOBAL| CPU model name             Intel(R) Xeon(R) Platinum 8174 CPU @ 3.10GHz

 MEMORY| system memory details [Kb]
 MEMORY|                        rank 0           min           max       average
 MEMORY| MemTotal             98436664      98436660      98436664      98436662
 MEMORY| MemFree              84043744      83914780      84043744      83979262
 MEMORY| Buffers                     0             0             0             0
 MEMORY| Cached                2391016       2391016       2412556       2401786
 MEMORY| Slab                  1227492       1227492       1237268       1232380
 MEMORY| SReclaimable           267304        267304        268868        268086
 MEMORY| MemLikelyFree        86702064      86596204      86702064      86649134


 *** Fundamental physical constants (SI units) ***

 *** Literature: B. J. Mohr and B. N. Taylor,
 ***             CODATA recommended values of the fundamental physical
 ***             constants: 2006, Web Version 5.1
 ***             http://physics.nist.gov/constants

 Speed of light in vacuum [m/s]                             2.99792458000000E+08
 Magnetic constant or permeability of vacuum [N/A**2]       1.25663706143592E-06
 Electric constant or permittivity of vacuum [F/m]          8.85418781762039E-12
 Planck constant (h) [J*s]                                  6.62606896000000E-34
 Planck constant (h-bar) [J*s]                              1.05457162825177E-34
 Elementary charge [C]                                      1.60217648700000E-19
 Electron mass [kg]                                         9.10938215000000E-31
 Electron g factor [ ]                                     -2.00231930436220E+00
 Proton mass [kg]                                           1.67262163700000E-27
 Fine-structure constant                                    7.29735253760000E-03
 Rydberg constant [1/m]                                     1.09737315685270E+07
 Avogadro constant [1/mol]                                  6.02214179000000E+23
 Boltzmann constant [J/K]                                   1.38065040000000E-23
 Atomic mass unit [kg]                                      1.66053878200000E-27
 Bohr radius [m]                                            5.29177208590000E-11

 *** Conversion factors ***

 [u] -> [a.u.]                                              1.82288848426455E+03
 [Angstrom] -> [Bohr] = [a.u.]                              1.88972613288564E+00
 [a.u.] = [Bohr] -> [Angstrom]                              5.29177208590000E-01
 [a.u.] -> [s]                                              2.41888432650478E-17
 [a.u.] -> [fs]                                             2.41888432650478E-02
 [a.u.] -> [J]                                              4.35974393937059E-18
 [a.u.] -> [N]                                              8.23872205491840E-08
 [a.u.] -> [K]                                              3.15774647902944E+05
 [a.u.] -> [kJ/mol]                                         2.62549961709828E+03
 [a.u.] -> [kcal/mol]                                       6.27509468713739E+02
 [a.u.] -> [Pa]                                             2.94210107994716E+13
 [a.u.] -> [bar]                                            2.94210107994716E+08
 [a.u.] -> [atm]                                            2.90362800883016E+08
 [a.u.] -> [eV]                                             2.72113838565563E+01
 [a.u.] -> [Hz]                                             6.57968392072181E+15
 [a.u.] -> [1/cm] (wave numbers)                            2.19474631370540E+05
 [a.u./Bohr**2] -> [1/cm]                                   5.14048714338585E+03
 

 CELL_TOP| Volume [angstrom^3]:                                     27000.000000
 CELL_TOP| Vector a [angstrom    30.000     0.000     0.000   |a| =    30.000000
 CELL_TOP| Vector b [angstrom     0.000    30.000     0.000   |b| =    30.000000
 CELL_TOP| Vector c [angstrom     0.000     0.000    30.000   |c| =    30.000000
 CELL_TOP| Angle (b,c), alpha [degree]:                                90.000000
 CELL_TOP| Angle (a,c), beta  [degree]:                                90.000000
 CELL_TOP| Angle (a,b), gamma [degree]:                                90.000000
 CELL_TOP| Numerically orthorhombic:                                         YES
 CELL_TOP| Periodicity                                                      NONE

 GENERATE|  Preliminary Number of Bonds generated:                             0
 GENERATE|  Achieved consistency in connectivity generation.

 CELL| Volume [angstrom^3]:                                         27000.000000
 CELL| Vector a [angstrom]:      30.000     0.000     0.000   |a| =    30.000000
 CELL| Vector b [angstrom]:       0.000    30.000     0.000   |b| =    30.000000
 CELL| Vector c [angstrom]:       0.000     0.000    30.000   |c| =    30.000000
 CELL| Angle (b,c), alpha [degree]:                                    90.000000
 CELL| Angle (a,c), beta  [degree]:                                    90.000000
 CELL| Angle (a,b), gamma [degree]:                                    90.000000
 CELL| Numerically orthorhombic:                                             YES
 CELL| Periodicity                                                          NONE

 CELL_REF| Volume [angstrom^3]:                                     27000.000000
 CELL_REF| Vector a [angstrom    30.000     0.000     0.000   |a| =    30.000000
 CELL_REF| Vector b [angstrom     0.000    30.000     0.000   |b| =    30.000000
 CELL_REF| Vector c [angstrom     0.000     0.000    30.000   |c| =    30.000000
 CELL_REF| Angle (b,c), alpha [degree]:                                90.000000
 CELL_REF| Angle (a,c), beta  [degree]:                                90.000000
 CELL_REF| Angle (a,b), gamma [degree]:                                90.000000
 CELL_REF| Numerically orthorhombic:                                         YES
 CELL_REF| Periodicity                                                      NONE

 *******************************************************************************
 *******************************************************************************
 **                                                                           **
 **     #####                         ##              ##                      **
 **    ##   ##            ##          ##              ##                      **
 **   ##     ##                       ##            ######                    **
 **   ##     ##  ##   ##  ##   #####  ##  ##   ####   ##    #####    #####    **
 **   ##     ##  ##   ##  ##  ##      ## ##   ##      ##   ##   ##  ##   ##   **
 **   ##  ## ##  ##   ##  ##  ##      ####     ###    ##   ######   ######    **
 **    ##  ###   ##   ##  ##  ##      ## ##      ##   ##   ##       ##        **
 **     #######   #####   ##   #####  ##  ##  ####    ##    #####   ##        **
 **           ##                                                    ##        **
 **                                                                           **
 **                                                ... make the atoms dance   **
 **                                                                           **
 **            Copyright (C) by CP2K developers group (2000-2025)             **
 **                      J. Chem. Phys. 152, 194103 (2020)                    **
 **                                                                           **
 *******************************************************************************

 DFT| Spin restricted Kohn-Sham (RKS) calculation                            RKS
 DFT| Multiplicity                                                             1
 DFT| Number of spin states                                                    1
 DFT| Charge                                                                   0
 DFT| Self-interaction correction (SIC)                                       NO
 DFT| Cutoffs: density                                              1.000000E-10
 DFT|          gradient                                             1.000000E-10
 DFT|          tau                                                  1.000000E-10
 DFT|          cutoff_smoothing_range                               0.000000E+00
 DFT| XC density smoothing                                                  NONE
 DFT| XC derivatives                                                          PW

 FUNCTIONAL| PBE:
 FUNCTIONAL| J.P.Perdew, K.Burke, M.Ernzerhof, Phys. Rev. Letter, vol. 77, n 18,
 FUNCTIONAL|  pp. 3865-3868, (1996)sx=0.750sc=1.000{spin unpolarized}           


 QS| Method:                                                                GAPW
 QS| Density plane wave grid type                        NON-SPHERICAL FULLSPACE
 QS| Number of grid levels:                                                    4
 QS| Density cutoff [a.u.]:                                                250.0
 QS| Multi grid cutoff [a.u.]: 1) grid level                               250.0
 QS|                           2) grid level                                83.3
 QS|                           3) grid level                                27.8
 QS|                           4) grid level                                 9.3
 QS| Grid level progression factor:                                          3.0
 QS| Relative density cutoff [a.u.]:                                        50.0
 QS| Interaction thresholds: eps_pgf_orb:                                1.0E-12
 QS|                         eps_filter_matrix:                          0.0E+00
 QS|                         eps_core_charge:                            1.0E-14
 QS|                         eps_rho_gspace:                             1.0E-12
 QS|                         eps_rho_rspace:                             1.0E-12
 QS|                         eps_gvg_rspace:                             1.0E-06
 QS|                         eps_ppl:                                    1.0E-02
 QS|                         eps_ppnl:                                   1.0E-08
 QS| GAPW|      One center basis from orbital basis primitives
 QS| GAPW|                   eps_fit:                                    1.0E-04
 QS| GAPW|                   eps_iso:                                    1.0E-12
 QS| GAPW|                   eps_svd:                                    1.0E-08
 QS| GAPW|                   eps_cpc:                                    1.0E-12
 QS| GAPW|   atom-r-grid: quadrature:                                     GC_LOG
 QS| GAPW|      atom-s-grid:  max l :                                          4
 QS| GAPW|      max_l_rho0 :                                                   2


 ATOMIC KIND INFORMATION

  1. Atomic kind: N                                     Number of atoms:       1

     Orbital Basis Set                                         aug-SZV-MOLOPT-ae

       Number of orbital shell sets:                                           2
       Number of orbital shells:                                               6
       Number of primitive Cartesian functions:                               13
       Number of Cartesian basis functions:                                   15
       Number of spherical basis functions:                                   14
       Norm type:                                                              2

       Normalised Cartesian orbitals:

                        Set   Shell   Orbital            Exponent    Coefficient

                          1       1    1s                0.090000       0.000000
                                                         0.184684       0.048330
                                                         0.402911       0.214496
                                                         0.927724       0.168591
                                                         2.411326      -0.046594
                                                         7.758467      -0.155691
                                                        39.198808      -0.147969

                          1       2    2s                0.090000      -0.118940
                                                         0.184684       0.080942
                                                         0.402911      -0.164238
                                                         0.927724      -0.024406
                                                         2.411326       0.000000
                                                         7.758467       0.000000
                                                        39.198808       0.000000

                          1       3    2px               0.090000       0.000000
                                                         0.184684       0.017552
                                                         0.402911       0.194858
                                                         0.927724       0.542535
                                                         2.411326       0.744820
                                                         7.758467       0.695446
                                                        39.198808       0.525635
                          1       3    2py               0.090000       0.000000
                                                         0.184684       0.017552
                                                         0.402911       0.194858
                                                         0.927724       0.542535
                                                         2.411326       0.744820
                                                         7.758467       0.695446
                                                        39.198808       0.525635
                          1       3    2pz               0.090000       0.000000
                                                         0.184684       0.017552
                                                         0.402911       0.194858
                                                         0.927724       0.542535
                                                         2.411326       0.744820
                                                         7.758467       0.695446
                                                        39.198808       0.525635

                          1       4    3px               0.090000      -0.032237
                                                         0.184684      -0.080882
                                                         0.402911       0.112185
                                                         0.927724       1.067728
                                                         2.411326       0.000000
                                                         7.758467       0.000000
                                                        39.198808       0.000000
                          1       4    3py               0.090000      -0.032237
                                                         0.184684      -0.080882
                                                         0.402911       0.112185
                                                         0.927724       1.067728
                                                         2.411326       0.000000
                                                         7.758467       0.000000
                                                        39.198808       0.000000
                          1       4    3pz               0.090000      -0.032237
                                                         0.184684      -0.080882
                                                         0.402911       0.112185
                                                         0.927724       1.067728
                                                         2.411326       0.000000
                                                         7.758467       0.000000
                                                        39.198808       0.000000

                          1       5    3dx2              0.090000      -0.010633
                                                         0.184684      -0.050923
                                                         0.402911       0.103346
                                                         0.927724      -0.777682
                                                         2.411326       0.000000
                                                         7.758467       0.000000
                                                        39.198808       0.000000
                          1       5    3dxy              0.090000      -0.018417
                                                         0.184684      -0.088201
                                                         0.402911       0.179000
                                                         0.927724      -1.346985
                                                         2.411326       0.000000
                                                         7.758467       0.000000
                                                        39.198808       0.000000
                          1       5    3dxz              0.090000      -0.018417
                                                         0.184684      -0.088201
                                                         0.402911       0.179000
                                                         0.927724      -1.346985
                                                         2.411326       0.000000
                                                         7.758467       0.000000
                                                        39.198808       0.000000
                          1       5    3dy2              0.090000      -0.010633
                                                         0.184684      -0.050923
                                                         0.402911       0.103346
                                                         0.927724      -0.777682
                                                         2.411326       0.000000
                                                         7.758467       0.000000
                                                        39.198808       0.000000
                          1       5    3dyz              0.090000      -0.018417
                                                         0.184684      -0.088201
                                                         0.402911       0.179000
                                                         0.927724      -1.346985
                                                         2.411326       0.000000
                                                         7.758467       0.000000
                                                        39.198808       0.000000
                          1       5    3dz2              0.090000      -0.010633
                                                         0.184684      -0.050923
                                                         0.402911       0.103346
                                                         0.927724      -0.777682
                                                         2.411326       0.000000
                                                         7.758467       0.000000
                                                        39.198808       0.000000

                          2       1    1s             1027.828458       1.185541
                                                       188.451223       1.789359
                                                        52.721861       2.350183
                                                        18.111382       2.318652
                                                         7.033180       1.281976
                                                         2.896652       0.206248

     RI Auxiliary Basis Set             RI_aug-SZV-MOLOPT-ae-SR_N_RI_025_s_p_d_f

       Number of orbital shell sets:                                           9
       Number of orbital shells:                                               9
       Number of primitive Cartesian functions:                                9
       Number of Cartesian basis functions:                                   29
       Number of spherical basis functions:                                   25
       Norm type:                                                              2

       Normalised Cartesian orbitals:

                        Set   Shell   Orbital            Exponent    Coefficient

                          1       1    1s                0.366043       0.335397

                          2       1    5px               0.438786       0.509044
                          2       1    5py               0.438786       0.509044
                          2       1    5pz               0.438786       0.509044

                          3       1    8dx2              0.671703       0.820294
                          3       1    8dxy              0.671703       1.420790
                          3       1    8dxz              0.671703       1.420790
                          3       1    8dy2              0.671703       0.820294
                          3       1    8dyz              0.671703       1.420790
                          3       1    8dz2              0.671703       0.820294

                          4       1    9fx3              0.687025       0.632620
                          4       1    9fx2y             0.687025       1.414582
                          4       1    9fx2z             0.687025       1.414582
                          4       1    9fxy2             0.687025       1.414582
                          4       1    9fxyz             0.687025       2.450128
                          4       1    9fxz2             0.687025       1.414582
                          4       1    9fy3              0.687025       0.632620
                          4       1    9fy2z             0.687025       1.414582
                          4       1    9fyz2             0.687025       1.414582
                          4       1    9fz3              0.687025       0.632620

                          5       1    2s                1.338522       0.886909

                          6       1    6px               1.638006       2.641401
                          6       1    6py               1.638006       2.641401
                          6       1    6pz               1.638006       2.641401

                          7       1    3s               12.321949       4.687266

                          8       1    7px              21.347579      65.407246
                          8       1    7py              21.347579      65.407246
                          8       1    7pz              21.347579      65.407246

                          9       1    4s              109.598167      24.141406

       Atomic covalent radius [Angstrom]:                                  0.750

       Atomic van der Waals radius [Angstrom]:                             1.550

     The atoms of this atomic kind are PAW atoms (GAPW):
       Hard Gaussian function radius:                                      1.512
       Rho0 radius:                                                        1.512
       Maximum GTO radius used for PAW projector construction:            24.566

     GAPW Soft Basis Set                                  aug-SZV-MOLOPT-ae_soft

       Number of orbital shell sets:                                           2
       Number of orbital shells:                                               6
       Number of primitive Cartesian functions:                                6
       Number of Cartesian basis functions:                                   15
       Number of spherical basis functions:                                   14
       Norm type:                                                              2

       Normalised Cartesian orbitals:

                        Set   Shell   Orbital            Exponent    Coefficient

                          1       1    1s                0.090000       0.000000
                                                         0.184684       0.048330
                                                         0.402911       0.214496
                                                         0.927724       0.168591
                                                         2.411326      -0.046594

                          1       2    2s                0.090000      -0.118940
                                                         0.184684       0.080942
                                                         0.402911      -0.164238
                                                         0.927724      -0.024406
                                                         2.411326       0.000000

                          1       3    2px               0.090000       0.000000
                                                         0.184684       0.017552
                                                         0.402911       0.194858
                                                         0.927724       0.542535
                                                         2.411326       0.744820
                          1       3    2py               0.090000       0.000000
                                                         0.184684       0.017552
                                                         0.402911       0.194858
                                                         0.927724       0.542535
                                                         2.411326       0.744820
                          1       3    2pz               0.090000       0.000000
                                                         0.184684       0.017552
                                                         0.402911       0.194858
                                                         0.927724       0.542535
                                                         2.411326       0.744820

                          1       4    3px               0.090000      -0.032237
                                                         0.184684      -0.080882
                                                         0.402911       0.112185
                                                         0.927724       1.067728
                                                         2.411326       0.000000
                          1       4    3py               0.090000      -0.032237
                                                         0.184684      -0.080882
                                                         0.402911       0.112185
                                                         0.927724       1.067728
                                                         2.411326       0.000000
                          1       4    3pz               0.090000      -0.032237
                                                         0.184684      -0.080882
                                                         0.402911       0.112185
                                                         0.927724       1.067728
                                                         2.411326       0.000000

                          1       5    3dx2              0.090000      -0.010633
                                                         0.184684      -0.050923
                                                         0.402911       0.103346
                                                         0.927724      -0.777682
                                                         2.411326       0.000000
                          1       5    3dxy              0.090000      -0.018417
                                                         0.184684      -0.088201
                                                         0.402911       0.179000
                                                         0.927724      -1.346985
                                                         2.411326       0.000000
                          1       5    3dxz              0.090000      -0.018417
                                                         0.184684      -0.088201
                                                         0.402911       0.179000
                                                         0.927724      -1.346985
                                                         2.411326       0.000000
                          1       5    3dy2              0.090000      -0.010633
                                                         0.184684      -0.050923
                                                         0.402911       0.103346
                                                         0.927724      -0.777682
                                                         2.411326       0.000000
                          1       5    3dyz              0.090000      -0.018417
                                                         0.184684      -0.088201
                                                         0.402911       0.179000
                                                         0.927724      -1.346985
                                                         2.411326       0.000000
                          1       5    3dz2              0.090000      -0.010633
                                                         0.184684      -0.050923
                                                         0.402911       0.103346
                                                         0.927724      -0.777682
                                                         2.411326       0.000000

                          2       1    1s                2.896652       0.206248

     AE Potential information for                                            ALL

       Description:                                       All-electron potential
                                          Krack, Parrinello, PCCP 2, 2105 (2000)

       Gaussian exponent of the core charge distribution:               5.979100
       Electronic configuration (s p d ...):                           4   3   0

  2. Atomic kind: H                                     Number of atoms:       1

     Orbital Basis Set                                         aug-SZV-MOLOPT-ae

       Number of orbital shell sets:                                           1
       Number of orbital shells:                                               4
       Number of primitive Cartesian functions:                                7
       Number of Cartesian basis functions:                                    6
       Number of spherical basis functions:                                    6
       Norm type:                                                              2

       Normalised Cartesian orbitals:

                        Set   Shell   Orbital            Exponent    Coefficient

                          1       1    1s                0.065428       0.000000
                                                         0.100112       0.016532
                                                         0.243077       0.102760
                                                         0.625955       0.185857
                                                         1.822143       0.188385
                                                         6.513144       0.143430
                                                        35.523221       0.095030

                          1       2    2s                0.065428       0.083549
                                                         0.100112       0.009605
                                                         0.243077       0.002524
                                                         0.625955       0.013457
                                                         1.822143       0.000000
                                                         6.513144       0.000000
                                                        35.523221       0.000000

                          1       3    3s                0.065428       0.037407
                                                         0.100112      -0.169070
                                                         0.243077      -0.018899
                                                         0.625955       0.012806
                                                         1.822143       0.000000
                                                         6.513144       0.000000
                                                        35.523221       0.000000

                          1       4    2px               0.065428       0.059908
                                                         0.100112      -0.023770
                                                         0.243077       0.000032
                                                         0.625955       0.017779
                                                         1.822143       0.000000
                                                         6.513144       0.000000
                                                        35.523221       0.000000
                          1       4    2py               0.065428       0.059908
                                                         0.100112      -0.023770
                                                         0.243077       0.000032
                                                         0.625955       0.017779
                                                         1.822143       0.000000
                                                         6.513144       0.000000
                                                        35.523221       0.000000
                          1       4    2pz               0.065428       0.059908
                                                         0.100112      -0.023770
                                                         0.243077       0.000032
                                                         0.625955       0.017779
                                                         1.822143       0.000000
                                                         6.513144       0.000000
                                                        35.523221       0.000000

     RI Auxiliary Basis Set             RI_aug-SZV-MOLOPT-ae-SR_N_RI_006_s_p_d_f

       Number of orbital shell sets:                                           4
       Number of orbital shells:                                               4
       Number of primitive Cartesian functions:                                4
       Number of Cartesian basis functions:                                    6
       Number of spherical basis functions:                                    6
       Norm type:                                                              2

       Normalised Cartesian orbitals:

                        Set   Shell   Orbital            Exponent    Coefficient

                          1       1    1s                0.310545       0.296485

                          2       1    4px               0.543207       0.664733
                          2       1    4py               0.543207       0.664733
                          2       1    4pz               0.543207       0.664733

                          3       1    2s                0.965126       0.693982

                          4       1    3s                3.094977       1.663042

       Atomic covalent radius [Angstrom]:                                  0.320

       Atomic van der Waals radius [Angstrom]:                             1.090

     The atoms of this atomic kind are PAW atoms (GAPW):
       Hard Gaussian function radius:                                      1.200
       Rho0 radius:                                                        1.200
       Maximum GTO radius used for PAW projector construction:            24.566

     GAPW Soft Basis Set                                  aug-SZV-MOLOPT-ae_soft

       Number of orbital shell sets:                                           1
       Number of orbital shells:                                               4
       Number of primitive Cartesian functions:                                6
       Number of Cartesian basis functions:                                    6
       Number of spherical basis functions:                                    6
       Norm type:                                                              2

       Normalised Cartesian orbitals:

                        Set   Shell   Orbital            Exponent    Coefficient

                          1       1    1s                0.065428       0.000000
                                                         0.100112       0.016532
                                                         0.243077       0.102760
                                                         0.625955       0.185857
                                                         1.822143       0.188385
                                                         6.513144       0.000000

                          1       2    2s                0.065428       0.083549
                                                         0.100112       0.009605
                                                         0.243077       0.002524
                                                         0.625955       0.013457
                                                         1.822143       0.000000
                                                         6.513144       0.000000

                          1       3    3s                0.065428       0.037407
                                                         0.100112      -0.169070
                                                         0.243077      -0.018899
                                                         0.625955       0.012806
                                                         1.822143       0.000000
                                                         6.513144       0.000000

                          1       4    2px               0.065428       0.059908
                                                         0.100112      -0.023770
                                                         0.243077       0.000032
                                                         0.625955       0.017779
                                                         1.822143       0.000000
                                                         6.513144       0.000000
                          1       4    2py               0.065428       0.059908
                                                         0.100112      -0.023770
                                                         0.243077       0.000032
                                                         0.625955       0.017779
                                                         1.822143       0.000000
                                                         6.513144       0.000000
                          1       4    2pz               0.065428       0.059908
                                                         0.100112      -0.023770
                                                         0.243077       0.000032
                                                         0.625955       0.017779
                                                         1.822143       0.000000
                                                         6.513144       0.000000

     AE Potential information for                                            ALL

       Description:                                       All-electron potential
                                          Krack, Parrinello, PCCP 2, 2105 (2000)

       Gaussian exponent of the core charge distribution:              12.500000
       Electronic configuration (s p d ...):                           1   0   0


 MOLECULE KIND INFORMATION


 All atoms are their own molecule, skipping detailed information


 TOTAL NUMBERS AND MAXIMUM NUMBERS

  Total number of            - Atomic kinds:                                   2
                             - Atoms:                                          2
                             - Shell sets:                                     3
                             - Shells:                                        10
                             - Primitive Cartesian functions:                 20
                             - Cartesian basis functions:                     21
                             - Spherical basis functions:                     20

  Maximum angular momentum of the orbital basis functions:                     2


 MODULE QUICKSTEP: ATOMIC COORDINATES IN ANGSTROM

   Atom Kind Element         X             Y             Z       Z(eff)     Mass
      1    1 N     7     15.518596     15.000000     15.000000   7.0000  14.0067
      2    2 H     1     14.481404     15.000000     15.000000   1.0000   1.0079



 SCF PARAMETERS         Density guess:                                    ATOMIC
                        --------------------------------------------------------
                        max_scf:                                             500
                        max_scf_history:                                       0
                        max_diis:                                              4
                        --------------------------------------------------------
                        eps_scf:                                        1.00E-06
                        eps_scf_history:                                0.00E+00
                        eps_diis:                                       1.00E-01
                        eps_eigval:                                     1.00E-05
                        --------------------------------------------------------
                        level_shift [a.u.]:                             0.000000
                        added MOs                                        16    0
                        --------------------------------------------------------
                        Mixing method:                            BROYDEN_MIXING
                                                charge density mixing in g-space
                        --------------------------------------------------------
                        No outer SCF

 PW_GRID| Information for grid number                                          1
 PW_GRID| Grid distributed over                                    24 processors
 PW_GRID| Real space group dimensions                                    24    1
 PW_GRID| the grid is blocked:                                                NO
 PW_GRID| Cutoff [a.u.]                                                    250.0
 PW_GRID| spherical cutoff:                                                   NO
 PW_GRID|   Bounds   1           -202     202                Points:         405
 PW_GRID|   Bounds   2           -202     202                Points:         405
 PW_GRID|   Bounds   3           -202     202                Points:         405
 PW_GRID| Volume element (a.u.^3)  0.2743E-02     Volume (a.u.^3)    182205.0337
 PW_GRID| Grid span                                                    FULLSPACE
 PW_GRID|   Distribution                         Average         Max         Min
 PW_GRID|   G-Vectors                          2767921.9     2768175     2767770
 PW_GRID|   G-Rays                                6834.4        6835        6834
 PW_GRID|   Real Space Points                  2767921.9     2788425     2624400

 PW_GRID| Information for grid number                                          2
 PW_GRID| Number of the reference grid                                         1
 PW_GRID| Grid distributed over                                    24 processors
 PW_GRID| Real space group dimensions                                    24    1
 PW_GRID| the grid is blocked:                                                NO
 PW_GRID| Cutoff [a.u.]                                                     83.3
 PW_GRID| spherical cutoff:                                                   NO
 PW_GRID|   Bounds   1           -120     119                Points:         240
 PW_GRID|   Bounds   2           -120     119                Points:         240
 PW_GRID|   Bounds   3           -120     119                Points:         240
 PW_GRID| Volume element (a.u.^3)  0.1318E-01     Volume (a.u.^3)    182205.0337
 PW_GRID| Grid span                                                    FULLSPACE
 PW_GRID|   Distribution                         Average         Max         Min
 PW_GRID|   G-Vectors                           576000.0      576240      575760
 PW_GRID|   G-Rays                                2400.0        2401        2399
 PW_GRID|   Real Space Points                   576000.0      576000      576000

 PW_GRID| Information for grid number                                          3
 PW_GRID| Number of the reference grid                                         1
 PW_GRID| Grid distributed over                                    24 processors
 PW_GRID| Real space group dimensions                                    24    1
 PW_GRID| the grid is blocked:                                                NO
 PW_GRID| Cutoff [a.u.]                                                     27.8
 PW_GRID| spherical cutoff:                                                   NO
 PW_GRID|   Bounds   1            -67      67                Points:         135
 PW_GRID|   Bounds   2            -67      67                Points:         135
 PW_GRID|   Bounds   3            -67      67                Points:         135
 PW_GRID| Volume element (a.u.^3)  0.7406E-01     Volume (a.u.^3)    182205.0337
 PW_GRID| Grid span                                                    FULLSPACE
 PW_GRID|   Distribution                         Average         Max         Min
 PW_GRID|   G-Vectors                           102515.6      102735      102330
 PW_GRID|   G-Rays                                 759.4         761         758
 PW_GRID|   Real Space Points                   102515.6      109350       91125

 PW_GRID| Information for grid number                                          4
 PW_GRID| Number of the reference grid                                         1
 PW_GRID| Grid distributed over                                    24 processors
 PW_GRID| Real space group dimensions                                    24    1
 PW_GRID| the grid is blocked:                                                NO
 PW_GRID| Cutoff [a.u.]                                                      9.3
 PW_GRID| spherical cutoff:                                                   NO
 PW_GRID|   Bounds   1            -40      39                Points:          80
 PW_GRID|   Bounds   2            -40      39                Points:          80
 PW_GRID|   Bounds   3            -40      39                Points:          80
 PW_GRID| Volume element (a.u.^3)  0.3559         Volume (a.u.^3)    182205.0337
 PW_GRID| Grid span                                                    FULLSPACE
 PW_GRID|   Distribution                         Average         Max         Min
 PW_GRID|   G-Vectors                            21333.3       21360       21280
 PW_GRID|   G-Rays                                 266.7         267         266
 PW_GRID|   Real Space Points                    21333.3       25600       19200

 POISSON| Solver                                                         WAVELET
 POISSON| Wavelet| Scaling function                                           40
 POISSON| Periodicity                                                       NONE

 RS_GRID| Information for grid number                                          1
 RS_GRID|   Bounds   1           -202     202                Points:         405
 RS_GRID|   Bounds   2           -202     202                Points:         405
 RS_GRID|   Bounds   3           -202     202                Points:         405
 RS_GRID| Real space distribution over                                  4 groups
 RS_GRID| Real space distribution along direction                              2
 RS_GRID| Border size                                                         33
 RS_GRID| Real space distribution over                                  6 groups
 RS_GRID| Real space distribution along direction                              3
 RS_GRID| Border size                                                         33
 RS_GRID|   Distribution                         Average         Max         Min
 RS_GRID|   Planes                                 167.2         168         167
 RS_GRID|   Distribution                         Average         Max         Min
 RS_GRID|   Planes                                 133.5         134         133

 RS_GRID| Information for grid number                                          2
 RS_GRID|   Bounds   1           -120     119                Points:         240
 RS_GRID|   Bounds   2           -120     119                Points:         240
 RS_GRID|   Bounds   3           -120     119                Points:         240
 RS_GRID| Real space distribution over                                  4 groups
 RS_GRID| Real space distribution along direction                              2
 RS_GRID| Border size                                                         36
 RS_GRID| Real space distribution over                                  6 groups
 RS_GRID| Real space distribution along direction                              3
 RS_GRID| Border size                                                         36
 RS_GRID|   Distribution                         Average         Max         Min
 RS_GRID|   Planes                                 132.0         132         132
 RS_GRID|   Distribution                         Average         Max         Min
 RS_GRID|   Planes                                 112.0         112         112

 RS_GRID| Information for grid number                                          3
 RS_GRID|   Bounds   1            -67      67                Points:         135
 RS_GRID|   Bounds   2            -67      67                Points:         135
 RS_GRID|   Bounds   3            -67      67                Points:         135
 RS_GRID| Real space fully replicated
 RS_GRID| Group size                                                           1

 RS_GRID| Information for grid number                                          4
 RS_GRID|   Bounds   1            -40      39                Points:          80
 RS_GRID|   Bounds   2            -40      39                Points:          80
 RS_GRID|   Bounds   3            -40      39                Points:          80
 RS_GRID| Real space fully replicated
 RS_GRID| Group size                                                           1

  HFX_INFO| Replica ID:                                                        1
  HFX_INFO| FRACTION:                                               0.2500000000
  HFX_INFO| Interaction Potential:                                       COULOMB
  HFX_INFO| EPS_SCHWARZ:                                                 1.0E-10
  HFX_INFO| EPS_SCHWARZ_FORCES                                           1.0E-08
  HFX_INFO| EPS_STORAGE_SCALING:                                         1.0E+00
  HFX_INFO| NBINS:                                                            64
  HFX_INFO| BLOCK_SIZE:                                                        1
  HFX_INFO| Number of periodic shells considered:                           NONE
  HFX_INFO| Number of periodic cells considered:                            NONE

 
 RI-RPA| using GPW style
 

 OVERLAP MATRIX CONDITION NUMBER
 1-Norm Condition Number (Estimate)
   CN : |A|*|A^-1|:  4.962E+000 *  7.084E+002   = 3.515E+003  Log(1-CN):  3.5459
 1-Norm and 2-Norm Condition Numbers using Diagonalization
   CN : |A|*|A^-1|:  4.962E+000 *  7.084E+002   = 3.515E+003  Log(1-CN):  3.5459
   CN : max/min ev:  3.965E+000 /  2.247E-003   = 1.764E+003  Log(2-CN):  3.2465

 Number of electrons:                                                          8
 Number of occupied orbitals:                                                  4
 Number of molecular orbitals:                                                20

 Number of orbital functions:                                                 20
 Number of independent orbital functions:                                     20

 Extrapolation method: initial_guess

 Atomic guess: The first density matrix is obtained in terms of atomic orbitals
               and electronic configurations assigned to each atomic kind

 Guess for atomic kind: N

 Electronic structure
    Total number of core electrons                                          0.00
    Total number of valence electrons                                       7.00
    Total number of electrons                                               7.00
    Multiplicity                                                   not specified
    S      2.00  2.00
    P      3.00


 *******************************************************************************
                  Iteration          Convergence                     Energy [au]
 *******************************************************************************
                          1        0.325929                     -53.884153266199
                          2        0.157204                     -53.911997171341
                          3        0.119206E-02                 -53.921312470162
                          4        0.146154E-04                 -53.921312958938
                          5        0.703430E-05                 -53.921312958993
                          6        0.461880E-05                 -53.921312959002
                          7        0.894723E-08                 -53.921312959009

 Energy components [Hartree]           Total Energy ::          -53.921312959009
                                        Band Energy ::          -30.455902305516
                                     Kinetic Energy ::           53.519410139912
                                   Potential Energy ::         -107.440723098921
                                      Virial (-V/T) ::            2.007509477740
                                        Core Energy ::          -73.216670532427
                                          XC Energy ::           -6.109461717977
                                     Coulomb Energy ::           25.404819291395

 Orbital energies  State     L     Occupation   Energy[a.u.]          Energy[eV]

                       1     0          2.000     -14.102420         -383.746365
                       2     0          2.000      -0.702220          -19.108372

                       1     1          3.000      -0.282208           -7.679258


 Total Electron Density at R=0:                                       175.030911

 Guess for atomic kind: H

 Electronic structure
    Total number of core electrons                                          0.00
    Total number of valence electrons                                       1.00
    Total number of electrons                                               1.00
    Multiplicity                                                   not specified
    S      1.00


 *******************************************************************************
                  Iteration          Convergence                     Energy [au]
 *******************************************************************************
                          1        0.962691E-02                  -0.444368661081
                          2        0.109107E-02                  -0.444473520424
                          3        0.117094E-03                  -0.444476577889
                          4        0.851579E-07                  -0.444476596085

 Energy components [Hartree]           Total Energy ::           -0.444476596085
                                        Band Energy ::           -0.233451424826
                                     Kinetic Energy ::            0.431260327433
                                   Potential Energy ::           -0.875736923518
                                      Virial (-V/T) ::            2.030645686170
                                        Core Energy ::           -0.494218917327
                                          XC Energy ::           -0.231476335377
                                     Coulomb Energy ::            0.281218656618

 Orbital energies  State     L     Occupation   Energy[a.u.]          Energy[eV]

                       1     0          1.000      -0.233451           -6.352536


 Total Electron Density at R=0:                                         0.270947
 Re-scaling the density matrix to get the right number of electrons
                  # Electrons              Trace(P)               Scaling factor
                            8                 8.000                        1.000


 SCF WAVEFUNCTION OPTIMIZATION

  Step     Update method      Time    Convergence         Total energy    Change
  ------------------------------------------------------------------------------

  HFX_MEM_INFO| Est. max. program size before HFX [MiB]:                    2135
  HFX_MEM_INFO| Number of cart. primitive ERI's calculated:             55945396
  HFX_MEM_INFO| Number of sph. ERI's calculated:                           73312
  HFX_MEM_INFO| Number of sph. ERI's stored in-core:                       73312
  HFX_MEM_INFO| Number of sph. ERI's stored on disk:                           0
  HFX_MEM_INFO| Number of sph. ERI's calculated on the fly:                    0
  HFX_MEM_INFO| Total memory consumption ERI's RAM [MiB]:                      1
  HFX_MEM_INFO| Whereof max-vals [MiB]:                                        1
  HFX_MEM_INFO| Total compression factor ERI's RAM:                         0.56
  HFX_MEM_INFO| Total memory consumption ERI's disk [MiB]:                     0
  HFX_MEM_INFO| Total compression factor ERI's disk:                        0.00
  HFX_MEM_INFO| Size of density/Fock matrix [MiB]:                             0
  HFX_MEM_INFO| Size of buffers [MiB]:                                         0
  HFX_MEM_INFO| Est. max. program size after HFX  [MiB]:                    2645

     1 NoMix/Diag. 0.10E+00    8.3     1.20511130       -54.9392288682 -5.49E+01
     2 Broy./Diag. 0.10E+00    4.9     0.07215971       -54.5193657618  4.20E-01
     3 Broy./Diag. 0.10E+00    4.9     0.09548749       -54.6305416033 -1.11E-01
     4 Broy./Diag. 0.10E+00    4.8     0.05076145       -54.8785511102 -2.48E-01
     5 Broy./Diag. 0.10E+00    4.9     0.01197288       -54.9898486687 -1.11E-01
     6 Broy./Diag. 0.10E+00    4.9     0.02164811       -54.9833371085  6.51E-03
     7 Broy./Diag. 0.10E+00    5.0     0.00401405       -54.9766575402  6.68E-03
     8 Broy./Diag. 0.10E+00    5.1     0.00856338       -54.9720342898  4.62E-03
     9 Broy./Diag. 0.10E+00    5.2     0.01295393       -54.9900242074 -1.80E-02
    10 Broy./Diag. 0.10E+00    5.3     0.00391306       -55.0101153092 -2.01E-02
    11 Broy./Diag. 0.10E+00    5.2     0.00783464       -54.9971933400  1.29E-02
    12 Broy./Diag. 0.10E+00    5.3     0.00061223       -54.9921517750  5.04E-03
    13 Broy./Diag. 0.10E+00    5.3     0.00829153       -54.9943447838 -2.19E-03
    14 Broy./Diag. 0.10E+00    5.3     0.00855433       -55.0011084329 -6.76E-03
    15 Broy./Diag. 0.10E+00    5.4     0.00129330       -55.0048437668 -3.74E-03
    16 Broy./Diag. 0.10E+00    5.3     0.00445501       -54.9996939886  5.15E-03
    17 Broy./Diag. 0.10E+00    5.3     0.00232275       -54.9969766612  2.72E-03
    18 Broy./Diag. 0.10E+00    5.3     0.00112084       -54.9962804946  6.96E-04
    19 Broy./Diag. 0.10E+00    5.3     0.00083557       -54.9972251840 -9.45E-04
    20 Broy./Diag. 0.10E+00    5.4     0.00082619       -54.9979276885 -7.03E-04
    21 Broy./Diag. 0.10E+00    5.3     0.00115499       -54.9984350257 -5.07E-04
    22 Broy./Diag. 0.10E+00    5.3     0.00021268       -54.9986060495 -1.71E-04
    23 Broy./Diag. 0.10E+00    5.4     0.00077051       -54.9977295929  8.76E-04
    24 Broy./Diag. 0.10E+00    5.3     0.00113666       -54.9973371756  3.92E-04
    25 Broy./Diag. 0.10E+00    5.3     0.00014412       -54.9975929249 -2.56E-04
    26 Broy./Diag. 0.10E+00    5.3     0.00017012       -54.9973410141  2.52E-04
    27 Broy./Diag. 0.10E+00    5.3     0.00019769       -54.9974689530 -1.28E-04
    28 Broy./Diag. 0.10E+00    5.3     0.00011016       -54.9977208658 -2.52E-04
    29 Broy./Diag. 0.10E+00    5.4     0.00023056       -54.9976030439  1.18E-04
    30 Broy./Diag. 0.10E+00    5.3     0.00035629       -54.9975881804  1.49E-05
    31 Broy./Diag. 0.10E+00    5.3     0.00016806       -54.9976781553 -9.00E-05
    32 Broy./Diag. 0.10E+00    5.4     0.00004337       -54.9977230873 -4.49E-05
    33 Broy./Diag. 0.10E+00    5.3     0.00041574       -54.9977245543 -1.47E-06
    34 Broy./Diag. 0.10E+00    5.3     0.00009807       -54.9976795379  4.50E-05
    35 Broy./Diag. 0.10E+00    5.3     0.00009790       -54.9976717436  7.79E-06
    36 Broy./Diag. 0.10E+00    5.3     0.00008166       -54.9977054922 -3.37E-05
    37 Broy./Diag. 0.10E+00    5.5     0.00004322       -54.9976821303  2.34E-05
    38 Broy./Diag. 0.10E+00    5.3     0.00006361       -54.9976603210  2.18E-05
    39 Broy./Diag. 0.10E+00    5.3     0.00008857       -54.9976529058  7.42E-06
    40 Broy./Diag. 0.10E+00    5.3     0.00005341       -54.9976369281  1.60E-05
    41 Broy./Diag. 0.10E+00    5.3     0.00003655       -54.9976420260 -5.10E-06
    42 Broy./Diag. 0.10E+00    5.3     0.00005375       -54.9976450239 -3.00E-06
    43 Broy./Diag. 0.10E+00    5.3     0.00001881       -54.9976403115  4.71E-06
    44 Broy./Diag. 0.10E+00    5.3     0.00000879       -54.9976394260  8.86E-07
    45 Broy./Diag. 0.10E+00    5.3     0.00002505       -54.9976282099  1.12E-05
    46 Broy./Diag. 0.10E+00    5.3     0.00001393       -54.9976244148  3.80E-06
    47 Broy./Diag. 0.10E+00    5.3     0.00002792       -54.9976278367 -3.42E-06
    48 Broy./Diag. 0.10E+00    5.3     0.00004454       -54.9976260452  1.79E-06
    49 Broy./Diag. 0.10E+00    5.4     0.00006912       -54.9976236208  2.42E-06
    50 Broy./Diag. 0.10E+00    5.3     0.00011793       -54.9976235107  1.10E-07
    51 Broy./Diag. 0.10E+00    5.3     0.00021054       -54.9976229955  5.15E-07
    52 Broy./Diag. 0.10E+00    5.4     0.00037149       -54.9976185512  4.44E-06
    53 Broy./Diag. 0.10E+00    5.4     0.00065736       -54.9976164955  2.06E-06
    54 Broy./Diag. 0.10E+00    5.4     0.00116355       -54.9976152078  1.29E-06
    55 Broy./Diag. 0.10E+00    5.4     0.00205807       -54.9976134033  1.80E-06
    56 Broy./Diag. 0.10E+00    5.3     0.00364843       -54.9976146515 -1.25E-06
    57 Broy./Diag. 0.10E+00    5.3     0.00646300       -54.9976121576  2.49E-06
    58 Broy./Diag. 0.10E+00    5.4     0.01142946       -54.9976077438  4.41E-06
    59 Broy./Diag. 0.10E+00    5.3     0.02010210       -54.9976536596 -4.59E-05
    60 Broy./Diag. 0.10E+00    5.3     0.03539555       -54.9977115123 -5.79E-05
    61 Broy./Diag. 0.10E+00    5.3     0.06209534       -54.9976376162  7.39E-05
    62 Broy./Diag. 0.10E+00    5.3     0.10765088       -54.9974140718  2.24E-04
    63 Broy./Diag. 0.10E+00    5.3     0.17974080       -54.9968576942  5.56E-04
    64 Broy./Diag. 0.10E+00    5.3     0.26928886       -54.9953174067  1.54E-03
    65 Broy./Diag. 0.10E+00    5.3     0.32232394       -54.9910654414  4.25E-03
    66 Broy./Diag. 0.10E+00    5.4     0.49580899       -54.9809488547  1.01E-02
    67 Broy./Diag. 0.10E+00    5.3     0.50519882       -54.9632414071  1.77E-02
    68 Broy./Diag. 0.10E+00    5.3     0.37312574       -54.9423572660  2.09E-02
    69 Broy./Diag. 0.10E+00    5.3     0.22574855       -54.9247807024  1.76E-02
    70 Broy./Diag. 0.10E+00    5.3     0.19588576       -54.9129923455  1.18E-02
    71 Broy./Diag. 0.10E+00    5.4     0.15266313       -54.9060879194  6.90E-03
    72 Broy./Diag. 0.10E+00    5.3     0.11253616       -54.9023840645  3.70E-03
    73 Broy./Diag. 0.10E+00    5.3     0.08084779       -54.9005899697  1.79E-03
    74 Broy./Diag. 0.10E+00    5.4     0.05765646       -54.9002812584  3.09E-04
    75 Broy./Diag. 0.10E+00    5.3     0.04348355       -54.9076073754 -7.33E-03
    76 Broy./Diag. 0.10E+00    5.4     0.03355609       -54.9123301358 -4.72E-03
    77 Broy./Diag. 0.10E+00    5.4     0.03032491       -54.9309978783 -1.87E-02
    78 Broy./Diag. 0.10E+00    5.3     0.03672044       -54.9764291518 -4.54E-02

 *** WARNING in pw/ps_wavelet_methods.F:238 :: Density non-zero on the ***
 *** edges of the unit cell: wrong results in WAVELET solver           ***

    79 Broy./Diag. 0.10E+00    5.4     0.05714766       -55.1129294059 -1.37E-01

 *** WARNING in pw/ps_wavelet_methods.F:238 :: Density non-zero on the ***
 *** edges of the unit cell: wrong results in WAVELET solver           ***

    80 Broy./Diag. 0.10E+00    5.3     0.12779705       -55.3843718030 -2.71E-01

 *** WARNING in pw/ps_wavelet_methods.F:238 :: Density non-zero on the ***
 *** edges of the unit cell: wrong results in WAVELET solver           ***

    81 Broy./Diag. 0.10E+00    5.4     0.18478225       -55.5865083831 -2.02E-01

 *** WARNING in pw/ps_wavelet_methods.F:238 :: Density non-zero on the ***
 *** edges of the unit cell: wrong results in WAVELET solver           ***

    82 Broy./Diag. 0.10E+00    5.4     0.19688148       -55.4704877153  1.16E-01

 *** WARNING in pw/ps_wavelet_methods.F:238 :: Density non-zero on the ***
 *** edges of the unit cell: wrong results in WAVELET solver           ***

    83 Broy./Diag. 0.10E+00    5.3     0.24975200       -55.2998698347  1.71E-01

 *** WARNING in pw/ps_wavelet_methods.F:238 :: Density non-zero on the ***
 *** edges of the unit cell: wrong results in WAVELET solver           ***

    84 Broy./Diag. 0.10E+00    5.3     0.15022234       -55.1543525272  1.46E-01

 *** WARNING in pw/ps_wavelet_methods.F:238 :: Density non-zero on the ***
 *** edges of the unit cell: wrong results in WAVELET solver           ***

    85 Broy./Diag. 0.10E+00    5.3     0.14135735       -55.1349563548  1.94E-02

 *** WARNING in pw/ps_wavelet_methods.F:238 :: Density non-zero on the ***
 *** edges of the unit cell: wrong results in WAVELET solver           ***

    86 Broy./Diag. 0.10E+00    5.3     0.30303755       -54.9978268322  1.37E-01

 *** WARNING in pw/ps_wavelet_methods.F:238 :: Density non-zero on the ***
 *** edges of the unit cell: wrong results in WAVELET solver           ***

    87 Broy./Diag. 0.10E+00    5.3     0.21156501       -55.1209111937 -1.23E-01

 *** WARNING in pw/ps_wavelet_methods.F:238 :: Density non-zero on the ***
 *** edges of the unit cell: wrong results in WAVELET solver           ***

    88 Broy./Diag. 0.10E+00    5.3     0.28504097       -55.1291123131 -8.20E-03
    89 Broy./Diag. 0.10E+00    5.3     0.43621234       -55.0974504383  3.17E-02
    90 Broy./Diag. 0.10E+00    5.3     0.27185636       -55.0778583183  1.96E-02
    91 Broy./Diag. 0.10E+00    5.3     0.26807914       -54.9526118134  1.25E-01
    92 Broy./Diag. 0.10E+00    5.3     0.29524705       -54.9936283108 -4.10E-02
    93 Broy./Diag. 0.10E+00    5.3     0.39052226       -54.9961676424 -2.54E-03
    94 Broy./Diag. 0.10E+00    5.4     0.31945675       -55.0143589332 -1.82E-02
    95 Broy./Diag. 0.10E+00    5.3     0.15243875       -55.0639801030 -4.96E-02
    96 Broy./Diag. 0.10E+00    5.3     0.14884313       -55.0651032371 -1.12E-03
    97 Broy./Diag. 0.10E+00    5.3     0.24016472       -55.0615291895  3.57E-03
    98 Broy./Diag. 0.10E+00    5.3     0.27378668       -55.0252223514  3.63E-02
    99 Broy./Diag. 0.10E+00    5.4     0.19851431       -54.9994106936  2.58E-02
   100 Broy./Diag. 0.10E+00    5.3     0.10664894       -54.9827454879  1.67E-02
   101 Broy./Diag. 0.10E+00    5.4     0.21395095       -55.0024563230 -1.97E-02
   102 Broy./Diag. 0.10E+00    5.3     0.15861572       -55.0249822075 -2.25E-02
   103 Broy./Diag. 0.10E+00    5.4     0.14461708       -55.0636928708 -3.87E-02
   104 Broy./Diag. 0.10E+00    5.4     0.14566689       -55.0955542772 -3.19E-02
   105 Broy./Diag. 0.10E+00    5.4     0.13983218       -55.0887046882  6.85E-03
   106 Broy./Diag. 0.10E+00    5.3     0.11927746       -55.0670390610  2.17E-02
   107 Broy./Diag. 0.10E+00    5.3     0.15702825       -55.0619900405  5.05E-03
   108 Broy./Diag. 0.10E+00    5.3     0.22538687       -55.0604782564  1.51E-03
   109 Broy./Diag. 0.10E+00    5.3     0.23494087       -55.0613169826 -8.39E-04
   110 Broy./Diag. 0.10E+00    5.3     0.31568125       -55.0681126962 -6.80E-03
   111 Broy./Diag. 0.10E+00    5.4     0.32208025       -55.0481419812  2.00E-02
   112 Broy./Diag. 0.10E+00    5.3     0.17628773       -55.0495403411 -1.40E-03
   113 Broy./Diag. 0.10E+00    5.4     0.24939368       -55.0337888167  1.58E-02
   114 Broy./Diag. 0.10E+00    5.3     0.25129419       -55.0404660225 -6.68E-03
   115 Broy./Diag. 0.10E+00    5.3     0.22626857       -55.0378578203  2.61E-03
   116 Broy./Diag. 0.10E+00    5.3     0.19503388       -55.0175772211  2.03E-02
   117 Broy./Diag. 0.10E+00    5.3     0.16295781       -54.9943897514  2.32E-02
   118 Broy./Diag. 0.10E+00    5.3     0.12679174       -54.9909726627  3.42E-03
   119 Broy./Diag. 0.10E+00    5.3     0.10115082       -54.9919590779 -9.86E-04
   120 Broy./Diag. 0.10E+00    5.3     0.10956615       -55.0018426816 -9.88E-03
   121 Broy./Diag. 0.10E+00    5.3     0.13613399       -55.0155428878 -1.37E-02
   122 Broy./Diag. 0.10E+00    5.4     0.23963341       -55.0129708940  2.57E-03
   123 Broy./Diag. 0.10E+00    5.3     0.33675254       -55.0128286555  1.42E-04
   124 Broy./Diag. 0.10E+00    5.3     0.46248939       -55.0048901942  7.94E-03
   125 Broy./Diag. 0.10E+00    5.4     0.41238340       -55.0046600843  2.30E-04
   126 Broy./Diag. 0.10E+00    5.3     0.28673717       -54.9811065490  2.36E-02
   127 Broy./Diag. 0.10E+00    5.3     0.27667628       -54.9557013262  2.54E-02
   128 Broy./Diag. 0.10E+00    5.4     0.22622823       -54.9405229383  1.52E-02
   129 Broy./Diag. 0.10E+00    5.4     0.18907490       -54.9298150005  1.07E-02
   130 Broy./Diag. 0.10E+00    5.3     0.14801617       -54.9311002249 -1.29E-03
   131 Broy./Diag. 0.10E+00    5.3     0.10577610       -54.9397845830 -8.68E-03
   132 Broy./Diag. 0.10E+00    5.3     0.10379706       -54.9615571592 -2.18E-02
   133 Broy./Diag. 0.10E+00    5.4     0.17848825       -55.0162681433 -5.47E-02
   134 Broy./Diag. 0.10E+00    5.3     0.21975720       -55.0819709813 -6.57E-02
   135 Broy./Diag. 0.10E+00    5.3     0.18993397       -55.0976730818 -1.57E-02
   136 Broy./Diag. 0.10E+00    5.3     0.15767669       -55.0624050332  3.53E-02
   137 Broy./Diag. 0.10E+00    5.4     0.15641377       -55.0350126615  2.74E-02
   138 Broy./Diag. 0.10E+00    5.3     0.05300733       -55.0197938061  1.52E-02
   139 Broy./Diag. 0.10E+00    5.4     0.08666046       -55.0092272938  1.06E-02
   140 Broy./Diag. 0.10E+00    5.3     0.03971236       -55.0337678628 -2.45E-02
   141 Broy./Diag. 0.10E+00    5.3     0.05260527       -55.0539041800 -2.01E-02
   142 Broy./Diag. 0.10E+00    5.3     0.03797293       -55.0474766432  6.43E-03
   143 Broy./Diag. 0.10E+00    5.3     0.11565315       -55.0091683113  3.83E-02
   144 Broy./Diag. 0.10E+00    5.3     0.06932808       -55.0006692305  8.50E-03
   145 Broy./Diag. 0.10E+00    5.4     0.01310403       -55.0012001270 -5.31E-04
   146 Broy./Diag. 0.10E+00    5.3     0.00451601       -55.0008496689  3.50E-04
   147 Broy./Diag. 0.10E+00    5.3     0.01062002       -54.9958769433  4.97E-03
   148 Broy./Diag. 0.10E+00    5.4     0.00619644       -54.9941834263  1.69E-03
   149 Broy./Diag. 0.10E+00    5.3     0.00395910       -54.9971924760 -3.01E-03
   150 Broy./Diag. 0.10E+00    5.3     0.00819612       -54.9991606414 -1.97E-03
   151 Broy./Diag. 0.10E+00    5.3     0.00910588       -54.9997486151 -5.88E-04
   152 Broy./Diag. 0.10E+00    5.3     0.00739650       -54.9995904302  1.58E-04
   153 Broy./Diag. 0.10E+00    5.4     0.00855194       -54.9992913132  2.99E-04
   154 Broy./Diag. 0.10E+00    5.3     0.00662695       -55.0006336514 -1.34E-03
   155 Broy./Diag. 0.10E+00    5.3     0.01157722       -55.0007878187 -1.54E-04
   156 Broy./Diag. 0.10E+00    5.4     0.01446112       -55.0005817241  2.06E-04
   157 Broy./Diag. 0.10E+00    5.3     0.01182833       -55.0000793411  5.02E-04
   158 Broy./Diag. 0.10E+00    5.3     0.01469962       -55.0000390555  4.03E-05
   159 Broy./Diag. 0.10E+00    5.3     0.02601017       -55.0000856965 -4.66E-05
   160 Broy./Diag. 0.10E+00    5.3     0.04465172       -54.9999463514  1.39E-04
   161 Broy./Diag. 0.10E+00    5.4     0.07602000       -54.9996037516  3.43E-04
   162 Broy./Diag. 0.10E+00    5.3     0.13312139       -54.9989981631  6.06E-04
   163 Broy./Diag. 0.10E+00    5.3     0.23065273       -54.9974120896  1.59E-03
   164 Broy./Diag. 0.10E+00    5.3     0.36693716       -54.9943109110  3.10E-03
   165 Broy./Diag. 0.10E+00    5.3     0.44915077       -54.9880382703  6.27E-03
   166 Broy./Diag. 0.10E+00    5.4     0.39773099       -54.9753917054  1.26E-02
   167 Broy./Diag. 0.10E+00    5.3     0.44727216       -54.9551694211  2.02E-02
   168 Broy./Diag. 0.10E+00    5.3     0.36726962       -54.9358692142  1.93E-02
   169 Broy./Diag. 0.10E+00    5.3     0.25919063       -54.9210475308  1.48E-02
   170 Broy./Diag. 0.10E+00    5.3     0.17360516       -54.9118149962  9.23E-03
   171 Broy./Diag. 0.10E+00    5.3     0.11545879       -54.9065115211  5.30E-03
   172 Broy./Diag. 0.10E+00    5.3     0.08049802       -54.9027702048  3.74E-03
   173 Broy./Diag. 0.10E+00    5.4     0.07593462       -54.8990460511  3.72E-03
   174 Broy./Diag. 0.10E+00    5.3     0.10842373       -54.8939220264  5.12E-03
   175 Broy./Diag. 0.10E+00    5.4     0.18337271       -54.8850000141  8.92E-03
   176 Broy./Diag. 0.10E+00    5.4     0.27834448       -54.8672320328  1.78E-02
   177 Broy./Diag. 0.10E+00    5.4     0.31086299       -54.8500268951  1.72E-02

 *** WARNING in pw/ps_wavelet_methods.F:238 :: Density non-zero on the ***
 *** edges of the unit cell: wrong results in WAVELET solver           ***

   178 Broy./Diag. 0.10E+00    5.5     0.24965431       -54.8486485504  1.38E-03

 *** WARNING in pw/ps_wavelet_methods.F:238 :: Density non-zero on the ***
 *** edges of the unit cell: wrong results in WAVELET solver           ***

   179 Broy./Diag. 0.10E+00    5.3     0.14750288       -54.9248918927 -7.62E-02
   180 Broy./Diag. 0.10E+00    5.3     0.06070567       -55.0562643244 -1.31E-01
   181 Broy./Diag. 0.10E+00    5.3     0.03883947       -55.1093165227 -5.31E-02
   182 Broy./Diag. 0.10E+00    5.3     0.14046701       -55.1872706206 -7.80E-02
   183 Broy./Diag. 0.10E+00    5.3     0.22656240       -55.2625929050 -7.53E-02
   184 Broy./Diag. 0.10E+00    5.3     0.46707313       -55.2930823852 -3.05E-02

 *** WARNING in pw/ps_wavelet_methods.F:238 :: Density non-zero on the ***
[...]
   418 Broy./Diag. 0.10E+00    5.3     0.25852839       -55.1149046577 -1.77E-01
   419 Broy./Diag. 0.10E+00    5.3     0.25842144       -55.1888218394 -7.39E-02
   420 Broy./Diag. 0.10E+00    5.3     0.18504120       -55.2031332181 -1.43E-02
   421 Broy./Diag. 0.10E+00    5.4     0.03984747       -55.1631623544  4.00E-02
   422 Broy./Diag. 0.10E+00    5.3     0.07038455       -55.1174303314  4.57E-02
   423 Broy./Diag. 0.10E+00    5.3     0.09201847       -55.0990576359  1.84E-02
   424 Broy./Diag. 0.10E+00    5.4     0.04300735       -55.0900138499  9.04E-03
   425 Broy./Diag. 0.10E+00    5.4     0.01658741       -55.0626763013  2.73E-02
   426 Broy./Diag. 0.10E+00    5.5     0.14247046       -55.0306429506  3.20E-02
   427 Broy./Diag. 0.10E+00    5.3     0.20148796       -55.0293923540  1.25E-03
   428 Broy./Diag. 0.10E+00    5.3     0.28702066       -55.0262328943  3.16E-03
   429 Broy./Diag. 0.10E+00    5.3     0.34917361       -55.0294514055 -3.22E-03
   430 Broy./Diag. 0.10E+00    5.3     0.43650753       -55.0318385422 -2.39E-03
   431 Broy./Diag. 0.10E+00    5.4     0.39889979       -55.0230095734  8.83E-03
   432 Broy./Diag. 0.10E+00    5.3     0.38896458       -54.9740856248  4.89E-02
   433 Broy./Diag. 0.10E+00    5.3     0.25181895       -54.9295341475  4.46E-02
   434 Broy./Diag. 0.10E+00    5.3     0.22047702       -54.9114147783  1.81E-02
   435 Broy./Diag. 0.10E+00    5.3     0.15582080       -54.9013041221  1.01E-02
   436 Broy./Diag. 0.10E+00    5.3     0.12461407       -54.8963169796  4.99E-03
   437 Broy./Diag. 0.10E+00    5.3     0.09400919       -54.8838234478  1.25E-02
   438 Broy./Diag. 0.10E+00    5.4     0.13908660       -54.8998603231 -1.60E-02
   439 Broy./Diag. 0.10E+00    5.3     0.30619354       -54.9729917767 -7.31E-02
   440 Broy./Diag. 0.10E+00    5.3     0.37241667       -55.0447093278 -7.17E-02
   441 Broy./Diag. 0.10E+00    5.3     0.24308891       -55.0780517228 -3.33E-02
   442 Broy./Diag. 0.10E+00    5.3     0.11336463       -55.0572097666  2.08E-02
   443 Broy./Diag. 0.10E+00    5.3     0.02023980       -55.0238928066  3.33E-02
   444 Broy./Diag. 0.10E+00    5.3     0.03618885       -55.0234365947  4.56E-04
   445 Broy./Diag. 0.10E+00    5.3     0.03448674       -55.0353537951 -1.19E-02
   446 Broy./Diag. 0.10E+00    5.3     0.05988214       -55.0393854422 -4.03E-03
   447 Broy./Diag. 0.10E+00    5.3     0.10451914       -55.0399606009 -5.75E-04
   448 Broy./Diag. 0.10E+00    5.3     0.18279967       -55.0395656231  3.95E-04
   449 Broy./Diag. 0.10E+00    5.5     0.31767189       -55.0385285441  1.04E-03
   450 Broy./Diag. 0.10E+00    5.3     0.43621900       -55.0369940898  1.53E-03
   451 Broy./Diag. 0.10E+00    5.3     0.44940382       -55.0316361110  5.36E-03
   452 Broy./Diag. 0.10E+00    5.3     0.35353357       -55.0122768922  1.94E-02
   453 Broy./Diag. 0.10E+00    5.3     0.31549934       -54.9756012536  3.67E-02
   454 Broy./Diag. 0.10E+00    5.3     0.31408630       -54.9495008834  2.61E-02
   455 Broy./Diag. 0.10E+00    5.3     0.26013567       -54.9413784209  8.12E-03
   456 Broy./Diag. 0.10E+00    5.3     0.18727766       -54.9368704633  4.51E-03
   457 Broy./Diag. 0.10E+00    5.3     0.13658592       -54.9334511382  3.42E-03
   458 Broy./Diag. 0.10E+00    5.3     0.11353418       -54.9322547066  1.20E-03
   459 Broy./Diag. 0.10E+00    5.3     0.13746920       -54.9397291971 -7.47E-03
   460 Broy./Diag. 0.10E+00    5.3     0.20324638       -54.9689349883 -2.92E-02
   461 Broy./Diag. 0.10E+00    5.3     0.27795435       -55.0087122473 -3.98E-02
   462 Broy./Diag. 0.10E+00    5.3     0.24550279       -55.0402974650 -3.16E-02
   463 Broy./Diag. 0.10E+00    5.3     0.14301360       -55.0497993168 -9.50E-03
   464 Broy./Diag. 0.10E+00    5.3     0.05743284       -55.0521701942 -2.37E-03
   465 Broy./Diag. 0.10E+00    5.3     0.01513045       -55.0583722185 -6.20E-03
   466 Broy./Diag. 0.10E+00    5.3     0.00388661       -55.0668653269 -8.49E-03
   467 Broy./Diag. 0.10E+00    5.3     0.00399185       -55.0704205018 -3.56E-03
   468 Broy./Diag. 0.10E+00    5.3     0.03400233       -55.0446294438  2.58E-02
   469 Broy./Diag. 0.10E+00    5.3     0.02755434       -55.0177613213  2.69E-02
   470 Broy./Diag. 0.10E+00    5.4     0.00603358       -55.0076911449  1.01E-02
   471 Broy./Diag. 0.10E+00    5.3     0.01595658       -55.0054196665  2.27E-03
   472 Broy./Diag. 0.10E+00    5.4     0.01917835       -55.0038598310  1.56E-03
   473 Broy./Diag. 0.10E+00    5.4     0.01321529       -55.0029324118  9.27E-04
   474 Broy./Diag. 0.10E+00    5.4     0.00806238       -55.0054396820 -2.51E-03
   475 Broy./Diag. 0.10E+00    5.3     0.00713190       -55.0039534009  1.49E-03
   476 Broy./Diag. 0.10E+00    5.3     0.00431760       -54.9984254531  5.53E-03
   477 Broy./Diag. 0.10E+00    5.3     0.00273474       -54.9956598682  2.77E-03
   478 Broy./Diag. 0.10E+00    5.3     0.01380955       -54.9964945785 -8.35E-04
   479 Broy./Diag. 0.10E+00    5.3     0.00480406       -54.9972738314 -7.79E-04
   480 Broy./Diag. 0.10E+00    5.3     0.00160159       -54.9976824748 -4.09E-04
   481 Broy./Diag. 0.10E+00    5.3     0.00343555       -54.9985829441 -9.00E-04
   482 Broy./Diag. 0.10E+00    5.4     0.00147775       -54.9987740962 -1.91E-04
   483 Broy./Diag. 0.10E+00    5.4     0.00790638       -54.9981092551  6.65E-04
   484 Broy./Diag. 0.10E+00    5.3     0.00524308       -54.9980802019  2.91E-05
   485 Broy./Diag. 0.10E+00    5.3     0.00315589       -54.9982187808 -1.39E-04
   486 Broy./Diag. 0.10E+00    5.3     0.00019997       -54.9982599859 -4.12E-05
   487 Broy./Diag. 0.10E+00    5.3     0.00060369       -54.9983207390 -6.08E-05
   488 Broy./Diag. 0.10E+00    5.3     0.00070981       -54.9982070463  1.14E-04
   489 Broy./Diag. 0.10E+00    5.3     0.00161878       -54.9983995421 -1.92E-04
   490 Broy./Diag. 0.10E+00    5.3     0.00269141       -54.9983666279  3.29E-05
   491 Broy./Diag. 0.10E+00    5.3     0.00144255       -54.9982955292  7.11E-05
   492 Broy./Diag. 0.10E+00    5.3     0.00034486       -54.9982840849  1.14E-05
   493 Broy./Diag. 0.10E+00    5.3     0.00086210       -54.9982112596  7.28E-05
   494 Broy./Diag. 0.10E+00    5.4     0.00120281       -54.9978413029  3.70E-04
   495 Broy./Diag. 0.10E+00    5.3     0.00126151       -54.9975841316  2.57E-04
   496 Broy./Diag. 0.10E+00    5.3     0.00008292       -54.9975514592  3.27E-05
   497 Broy./Diag. 0.10E+00    5.3     0.00026092       -54.9975908339 -3.94E-05
   498 Broy./Diag. 0.10E+00    5.3     0.00142893       -54.9975439065  4.69E-05
   499 Broy./Diag. 0.10E+00    5.3     0.00179974       -54.9975871163 -4.32E-05
   500 Broy./Diag. 0.10E+00    5.3     0.00325451       -54.9976029663 -1.59E-05

  Leaving inner SCF loop after reaching   500 steps.


  Electronic density on regular grids:         -6.0231738195        1.9768261805
  Core density on regular grids:                8.0000000000       -0.0000000000
  Hard and soft densities (Lebedev):          -20.0339170095      -18.0570948307
  Total Rho_soft + Rho1_hard - Rho1_soft       -7.9999959983
  Total charge density (r-space):               0.0000040017
  Total Rho_soft + Rho0_soft (g-space):         0.0000039893

  Overlap energy of the core charge distribution:               0.00000008866015
  Self energy of the core charge distribution:                -49.21005070205399
  Core Hamiltonian energy:                                     -7.49400559992982
  Hartree energy:                                              17.75833169755949
  Exchange-correlation energy:                                 -2.07529914578173
  Hartree-Fock Exchange energy:                                -1.70777491178159

  GAPW| Exc from hard and soft atomic rho1:                    -3.24910365310730
  GAPW| local Eh = 1 center integrals:                         -9.01970073984344

  Total energy:                                               -54.99760296627822

 *******************************************************************************
 *   ___                                                                       *
 *  /   \                                                                      *
 * [ABORT]                                                                     *
 *  \___/     SCF run NOT converged. To continue the calculation regardless,   *
 *    |             please set the keyword IGNORE_CONVERGENCE_FAILURE.         *
 *  O/|                                                                        *
 * /| |                                                                        *
 * / \                                                            qs_scf.F:611 *
 *******************************************************************************


 ===== Routine Calling Stack ===== 

            3 scf_env_do_scf
            2 qs_energies
            1 CP2K

 *******************************************************************************
 *   ___                                                                       *
 *  /   \                                                                      *
 * [ABORT]                                                                     *
 *  \___/     SCF run NOT converged. To continue the calculation regardless,   *
 *    |             please set the keyword IGNORE_CONVERGENCE_FAILURE.         *
 *  O/|                                                                        *
 * /| |                                                                        *
 * / \                                                            qs_scf.F:611 *
 *******************************************************************************


 ===== Routine Calling Stack ===== 

            3 scf_env_do_scf
            2 qs_energies
            1 CP2K

 *******************************************************************************
 *   ___                                                                       *
 *  /   \                                                                      *
 * [ABORT]                                                                     *
 *  \___/     SCF run NOT converged. To continue the calculation regardless,   *
 *    |             please set the keyword IGNORE_CONVERGENCE_FAILURE.         *
 *  O/|                                                                        *
 * /| |                                                                        *
 * / \                                                            qs_scf.F:611 *
 *******************************************************************************


 ===== Routine Calling Stack ===== 

            3 scf_env_do_scf
            2 qs_energies
            1 CP2K

 *******************************************************************************
 *   ___                                                                       *
 *  /   \                                                                      *
 * [ABORT]                                                                     *
 *  \___/     SCF run NOT converged. To continue the calculation regardless,   *
 *    |             please set the keyword IGNORE_CONVERGENCE_FAILURE.         *
 *  O/|                                                                        *
 * /| |                                                                        *
 * / \                                                            qs_scf.F:611 *
 *******************************************************************************


 ===== Routine Calling Stack ===== 

            3 scf_env_do_scf
            2 qs_energies
            1 CP2K

 *******************************************************************************
 *   ___                                                                       *
 *  /   \                                                                      *
 * [ABORT]                                                                     *
 *  \___/     SCF run NOT converged. To continue the calculation regardless,   *
 *    |             please set the keyword IGNORE_CONVERGENCE_FAILURE.         *
 *  O/|                                                                        *
 * /| |                                                                        *
 * / \                                                            qs_scf.F:611 *
 *******************************************************************************


 ===== Routine Calling Stack ===== 

            3 scf_env_do_scf
            2 qs_energies
            1 CP2K

 *******************************************************************************
 *   ___                                                                       *
 *  /   \                                                                      *
 * [ABORT]                                                                     *
 *  \___/     SCF run NOT converged. To continue the calculation regardless,   *
 *    |             please set the keyword IGNORE_CONVERGENCE_FAILURE.         *
 *  O/|                                                                        *
 * /| |                                                                        *
 * / \                                                            qs_scf.F:611 *
 *******************************************************************************


 ===== Routine Calling Stack ===== 

            3 scf_env_do_scf
            2 qs_energies
            1 CP2K

 *******************************************************************************
 *   ___                                                                       *
 *  /   \                                                                      *
 * [ABORT]                                                                     *
 *  \___/     SCF run NOT converged. To continue the calculation regardless,   *
 *    |             please set the keyword IGNORE_CONVERGENCE_FAILURE.         *
 *  O/|                                                                        *
 * /| |                                                                        *
 * / \                                                            qs_scf.F:611 *
 *******************************************************************************


 ===== Routine Calling Stack ===== 

            3 scf_env_do_scf
            2 qs_energies
            1 CP2K

 *******************************************************************************
 *   ___                                                                       *
 *  /   \                                                                      *
 * [ABORT]                                                                     *
 *  \___/     SCF run NOT converged. To continue the calculation regardless,   *
 *    |             please set the keyword IGNORE_CONVERGENCE_FAILURE.         *
 *  O/|                                                                        *
 * /| |                                                                        *
 * / \                                                            qs_scf.F:611 *
 *******************************************************************************


 ===== Routine Calling Stack ===== 

            3 scf_env_do_scf
            2 qs_energies
            1 CP2K

 *******************************************************************************
 *   ___                                                                       *
 *  /   \                                                                      *
 * [ABORT]                                                                     *
 *  \___/     SCF run NOT converged. To continue the calculation regardless,   *
 *    |             please set the keyword IGNORE_CONVERGENCE_FAILURE.         *
 *  O/|                                                                        *
 * /| |                                                                        *
 * / \                                                            qs_scf.F:611 *
 *******************************************************************************


 ===== Routine Calling Stack ===== 

            3 scf_env_do_scf
            2 qs_energies
            1 CP2K

 *******************************************************************************
 *   ___                                                                       *
 *  /   \                                                                      *
 * [ABORT]                                                                     *
 *  \___/     SCF run NOT converged. To continue the calculation regardless,   *
 *    |             please set the keyword IGNORE_CONVERGENCE_FAILURE.         *
 *  O/|                                                                        *
 * /| |                                                                        *
 * / \                                                            qs_scf.F:611 *
 *******************************************************************************


 ===== Routine Calling Stack ===== 

            3 scf_env_do_scf
            2 qs_energies
            1 CP2K

 *******************************************************************************
 *   ___                                                                       *
 *  /   \                                                                      *
 * [ABORT]                                                                     *
 *  \___/     SCF run NOT converged. To continue the calculation regardless,   *
 *    |             please set the keyword IGNORE_CONVERGENCE_FAILURE.         *
 *  O/|                                                                        *
 * /| |                                                                        *
 * / \                                                            qs_scf.F:611 *
 *******************************************************************************


 ===== Routine Calling Stack ===== 

            3 scf_env_do_scf
            2 qs_energies
            1 CP2K

 *******************************************************************************
 *   ___                                                                       *
 *  /   \                                                                      *
 * [ABORT]                                                                     *
 *  \___/     SCF run NOT converged. To continue the calculation regardless,   *
 *    |             please set the keyword IGNORE_CONVERGENCE_FAILURE.         *
 *  O/|                                                                        *
 * /| |                                                                        *
 * / \                                                            qs_scf.F:611 *
 *******************************************************************************


 ===== Routine Calling Stack ===== 

            3 scf_env_do_scf
            2 qs_energies
            1 CP2K

 *******************************************************************************
 *   ___                                                                       *
 *  /   \                                                                      *
 * [ABORT]                                                                     *
 *  \___/     SCF run NOT converged. To continue the calculation regardless,   *
 *    |             please set the keyword IGNORE_CONVERGENCE_FAILURE.         *
 *  O/|                                                                        *
 * /| |                                                                        *
 * / \                                                            qs_scf.F:611 *
 *******************************************************************************


 ===== Routine Calling Stack ===== 

            3 scf_env_do_scf
            2 qs_energies
            1 CP2K
