 DBCSR| CPU Multiplication driver                                           BLAS (U)
 DBCSR| Multrec recursion limit                                              512 (U)
 DBCSR| Multiplication stack size                                           1000 (D)
 DBCSR| Maximum elements for images                                    UNLIMITED (U)
 DBCSR| Multiplicative factor virtual images                                   1 (U)
 DBCSR| Use multiplication densification                                       T (D)
 DBCSR| Multiplication size stacks                                             3 (U)
 DBCSR| Use memory pool for CPU allocation                                     F (U)
 DBCSR| Number of 3D layers                                               SINGLE (U)
 DBCSR| Use MPI memory allocation                                              F (U)
 DBCSR| Use RMA algorithm                                                      F (U)
 DBCSR| Use Communication thread                                               T (U)
 DBCSR| Communication thread load                                             75 (D)
 DBCSR| MPI: My process id                                                     0
 DBCSR| MPI: Number of processes                                              24
 DBCSR| OMP: Current number of threads                                         4
 DBCSR| OMP: Max number of threads                                             4
 DBCSR| Split modifier for TAS multiplication algorithm                  1.0E+00 (U)


  **** **** ******  **  PROGRAM STARTED AT               2025-03-16 14:32:43.642
 ***** ** ***  *** **   PROGRAM STARTED ON                          i02r09c06s12
 **    ****   ******    PROGRAM STARTED BY                               di38fab
 ***** **    ** ** **   PROGRAM PROCESS ID                                932107
  **** **  *******  **  PROGRAM STARTED IN /hppfs/scratch/04/di38fab/05_MOL/W4-1
                                           1+ALK/bn3pi/SZV/GW+BSE/1e-3

 CP2K| version string:                 CP2K version 2025.1 (Development Version)
 CP2K| source code revision number:                                  git:d2e611a
 CP2K| cp2kflags: omp libint fftw3 libxc parallel scalapack max_contr=4         
 CP2K| is freely available from                            https://www.cp2k.org/
 CP2K| Program compiled at                       Thu 06 Mar 2025 05:09:20 PM CET
 CP2K| Program compiled on                                               login02
 CP2K| Program compiled for                                        Supermuc-foss
 CP2K| Data directory path                  /hppfs/work/pn36zo/di38fab/cp2k/data
 CP2K| Input file name                                                    GW.inp

 GLOBAL| Force Environment number                                              1
 GLOBAL| Basis set file name            /hppfs/scratch/04/di38fab/04_TMD/BASIS_A
 GLOBAL| Potential file name            /hppfs/work/pn36zo/di38fab/cp2k/data/ALL
 GLOBAL| MM Potential file name                                     MM_POTENTIAL
 GLOBAL| Coordinate file name                                      __STD_INPUT__
 GLOBAL| Method name                                                        CP2K
 GLOBAL| Project name                                                       MoS2
 GLOBAL| Run type                                                         ENERGY
 GLOBAL| FFT library                                                       FFTW3
 GLOBAL| Diagonalization library                                       ScaLAPACK
 GLOBAL| DGEMM library                                                      BLAS
 GLOBAL| Orthonormality check for eigenvectors                          DISABLED
 GLOBAL| Matrix multiplication library                                 ScaLAPACK
 GLOBAL| All-to-all communication in single precision                          F
 GLOBAL| FFTs using library dependent lengths                                  F
 GLOBAL| Grid backend                                                       AUTO
 GLOBAL| Global print level                                               MEDIUM
 GLOBAL| MPI I/O enabled                                                       T
 GLOBAL| Total number of message passing processes                            24
 GLOBAL| Number of threads for this process                                    4
 GLOBAL| This output is from process                                           0
 GLOBAL| OpenMP stack size per thread (OMP_STACKSIZE)                    default
 GLOBAL| CPU model name             Intel(R) Xeon(R) Platinum 8174 CPU @ 3.10GHz

 MEMORY| system memory details [Kb]
 MEMORY|                        rank 0           min           max       average
 MEMORY| MemTotal             98436660      98436660      98436660      98436660
 MEMORY| MemFree              84043736      83860828      84043736      83952282
 MEMORY| Buffers                     0             0             0             0
 MEMORY| Cached                2405588       2405588       2410856       2408222
 MEMORY| Slab                  1236940       1236940       1245012       1240976
 MEMORY| SReclaimable           271288        271288        271964        271626
 MEMORY| MemLikelyFree        86720612      86543648      86720612      86632130


 *** Fundamental physical constants (SI units) ***

 *** Literature: B. J. Mohr and B. N. Taylor,
 ***             CODATA recommended values of the fundamental physical
 ***             constants: 2006, Web Version 5.1
 ***             http://physics.nist.gov/constants

 Speed of light in vacuum [m/s]                             2.99792458000000E+08
 Magnetic constant or permeability of vacuum [N/A**2]       1.25663706143592E-06
 Electric constant or permittivity of vacuum [F/m]          8.85418781762039E-12
 Planck constant (h) [J*s]                                  6.62606896000000E-34
 Planck constant (h-bar) [J*s]                              1.05457162825177E-34
 Elementary charge [C]                                      1.60217648700000E-19
 Electron mass [kg]                                         9.10938215000000E-31
 Electron g factor [ ]                                     -2.00231930436220E+00
 Proton mass [kg]                                           1.67262163700000E-27
 Fine-structure constant                                    7.29735253760000E-03
 Rydberg constant [1/m]                                     1.09737315685270E+07
 Avogadro constant [1/mol]                                  6.02214179000000E+23
 Boltzmann constant [J/K]                                   1.38065040000000E-23
 Atomic mass unit [kg]                                      1.66053878200000E-27
 Bohr radius [m]                                            5.29177208590000E-11

 *** Conversion factors ***

 [u] -> [a.u.]                                              1.82288848426455E+03
 [Angstrom] -> [Bohr] = [a.u.]                              1.88972613288564E+00
 [a.u.] = [Bohr] -> [Angstrom]                              5.29177208590000E-01
 [a.u.] -> [s]                                              2.41888432650478E-17
 [a.u.] -> [fs]                                             2.41888432650478E-02
 [a.u.] -> [J]                                              4.35974393937059E-18
 [a.u.] -> [N]                                              8.23872205491840E-08
 [a.u.] -> [K]                                              3.15774647902944E+05
 [a.u.] -> [kJ/mol]                                         2.62549961709828E+03
 [a.u.] -> [kcal/mol]                                       6.27509468713739E+02
 [a.u.] -> [Pa]                                             2.94210107994716E+13
 [a.u.] -> [bar]                                            2.94210107994716E+08
 [a.u.] -> [atm]                                            2.90362800883016E+08
 [a.u.] -> [eV]                                             2.72113838565563E+01
 [a.u.] -> [Hz]                                             6.57968392072181E+15
 [a.u.] -> [1/cm] (wave numbers)                            2.19474631370540E+05
 [a.u./Bohr**2] -> [1/cm]                                   5.14048714338585E+03
 

 CELL_TOP| Volume [angstrom^3]:                                     27000.000000
 CELL_TOP| Vector a [angstrom    30.000     0.000     0.000   |a| =    30.000000
 CELL_TOP| Vector b [angstrom     0.000    30.000     0.000   |b| =    30.000000
 CELL_TOP| Vector c [angstrom     0.000     0.000    30.000   |c| =    30.000000
 CELL_TOP| Angle (b,c), alpha [degree]:                                90.000000
 CELL_TOP| Angle (a,c), beta  [degree]:                                90.000000
 CELL_TOP| Angle (a,b), gamma [degree]:                                90.000000
 CELL_TOP| Numerically orthorhombic:                                         YES
 CELL_TOP| Periodicity                                                      NONE

 GENERATE|  Preliminary Number of Bonds generated:                             0
 GENERATE|  Achieved consistency in connectivity generation.

 CELL| Volume [angstrom^3]:                                         27000.000000
 CELL| Vector a [angstrom]:      30.000     0.000     0.000   |a| =    30.000000
 CELL| Vector b [angstrom]:       0.000    30.000     0.000   |b| =    30.000000
 CELL| Vector c [angstrom]:       0.000     0.000    30.000   |c| =    30.000000
 CELL| Angle (b,c), alpha [degree]:                                    90.000000
 CELL| Angle (a,c), beta  [degree]:                                    90.000000
 CELL| Angle (a,b), gamma [degree]:                                    90.000000
 CELL| Numerically orthorhombic:                                             YES
 CELL| Periodicity                                                          NONE

 CELL_REF| Volume [angstrom^3]:                                     27000.000000
 CELL_REF| Vector a [angstrom    30.000     0.000     0.000   |a| =    30.000000
 CELL_REF| Vector b [angstrom     0.000    30.000     0.000   |b| =    30.000000
 CELL_REF| Vector c [angstrom     0.000     0.000    30.000   |c| =    30.000000
 CELL_REF| Angle (b,c), alpha [degree]:                                90.000000
 CELL_REF| Angle (a,c), beta  [degree]:                                90.000000
 CELL_REF| Angle (a,b), gamma [degree]:                                90.000000
 CELL_REF| Numerically orthorhombic:                                         YES
 CELL_REF| Periodicity                                                      NONE

 *******************************************************************************
 *******************************************************************************
 **                                                                           **
 **     #####                         ##              ##                      **
 **    ##   ##            ##          ##              ##                      **
 **   ##     ##                       ##            ######                    **
 **   ##     ##  ##   ##  ##   #####  ##  ##   ####   ##    #####    #####    **
 **   ##     ##  ##   ##  ##  ##      ## ##   ##      ##   ##   ##  ##   ##   **
 **   ##  ## ##  ##   ##  ##  ##      ####     ###    ##   ######   ######    **
 **    ##  ###   ##   ##  ##  ##      ## ##      ##   ##   ##       ##        **
 **     #######   #####   ##   #####  ##  ##  ####    ##    #####   ##        **
 **           ##                                                    ##        **
 **                                                                           **
 **                                                ... make the atoms dance   **
 **                                                                           **
 **            Copyright (C) by CP2K developers group (2000-2025)             **
 **                      J. Chem. Phys. 152, 194103 (2020)                    **
 **                                                                           **
 *******************************************************************************

 DFT| Spin restricted Kohn-Sham (RKS) calculation                            RKS
 DFT| Multiplicity                                                             1
 DFT| Number of spin states                                                    1
 DFT| Charge                                                                   0
 DFT| Self-interaction correction (SIC)                                       NO
 DFT| Cutoffs: density                                              1.000000E-10
 DFT|          gradient                                             1.000000E-10
 DFT|          tau                                                  1.000000E-10
 DFT|          cutoff_smoothing_range                               0.000000E+00
 DFT| XC density smoothing                                                  NONE
 DFT| XC derivatives                                                          PW

 FUNCTIONAL| PBE:
 FUNCTIONAL| J.P.Perdew, K.Burke, M.Ernzerhof, Phys. Rev. Letter, vol. 77, n 18,
 FUNCTIONAL|  pp. 3865-3868, (1996)sx=0.750sc=1.000{spin unpolarized}           


 QS| Method:                                                                GAPW
 QS| Density plane wave grid type                        NON-SPHERICAL FULLSPACE
 QS| Number of grid levels:                                                    4
 QS| Density cutoff [a.u.]:                                                250.0
 QS| Multi grid cutoff [a.u.]: 1) grid level                               250.0
 QS|                           2) grid level                                83.3
 QS|                           3) grid level                                27.8
 QS|                           4) grid level                                 9.3
 QS| Grid level progression factor:                                          3.0
 QS| Relative density cutoff [a.u.]:                                        50.0
 QS| Interaction thresholds: eps_pgf_orb:                                1.0E-12
 QS|                         eps_filter_matrix:                          0.0E+00
 QS|                         eps_core_charge:                            1.0E-14
 QS|                         eps_rho_gspace:                             1.0E-12
 QS|                         eps_rho_rspace:                             1.0E-12
 QS|                         eps_gvg_rspace:                             1.0E-06
 QS|                         eps_ppl:                                    1.0E-02
 QS|                         eps_ppnl:                                   1.0E-08
 QS| GAPW|      One center basis from orbital basis primitives
 QS| GAPW|                   eps_fit:                                    1.0E-04
 QS| GAPW|                   eps_iso:                                    1.0E-12
 QS| GAPW|                   eps_svd:                                    1.0E-08
 QS| GAPW|                   eps_cpc:                                    1.0E-12
 QS| GAPW|   atom-r-grid: quadrature:                                     GC_LOG
 QS| GAPW|      atom-s-grid:  max l :                                          4
 QS| GAPW|      max_l_rho0 :                                                   2


 ATOMIC KIND INFORMATION

  1. Atomic kind: B                                     Number of atoms:       1

     Orbital Basis Set                                         aug-SZV-MOLOPT-ae

       Number of orbital shell sets:                                           2
       Number of orbital shells:                                               6
       Number of primitive Cartesian functions:                               13
       Number of Cartesian basis functions:                                   15
       Number of spherical basis functions:                                   14
       Norm type:                                                              2

       Normalised Cartesian orbitals:

                        Set   Shell   Orbital            Exponent    Coefficient

                          1       1    1s                0.109280       0.032606
                                                         0.155613       0.000000
                                                         0.238409       0.144712
                                                         0.548949       0.113742
                                                         1.426820      -0.031435
                                                         4.590809      -0.105038
                                                        23.194561      -0.099829

                          1       2    2s                0.109280      -0.049098
                                                         0.155613      -0.119813
                                                         0.238409      -0.025283
                                                         0.548949       0.056653
                                                         1.426820       0.132404
                                                         4.590809       0.000000
                                                        23.194561       0.000000

                          1       3    2px               0.109280       0.009109
                                                         0.155613       0.000000
                                                         0.238409       0.101125
                                                         0.548949       0.281559
                                                         1.426820       0.386539
                                                         4.590809       0.360915
                                                        23.194561       0.272788
                          1       3    2py               0.109280       0.009109
                                                         0.155613       0.000000
                                                         0.238409       0.101125
                                                         0.548949       0.281559
                                                         1.426820       0.386539
                                                         4.590809       0.360915
                                                        23.194561       0.272788
                          1       3    2pz               0.109280       0.009109
                                                         0.155613       0.000000
                                                         0.238409       0.101125
                                                         0.548949       0.281559
                                                         1.426820       0.386539
                                                         4.590809       0.360915
                                                        23.194561       0.272788

                          1       4    3px               0.109280       0.062233
                                                         0.155613       0.035668
                                                         0.238409       0.015304
                                                         0.548949      -0.003054
                                                         1.426820       0.021875
                                                         4.590809       0.000000
                                                        23.194561       0.000000
                          1       4    3py               0.109280       0.062233
                                                         0.155613       0.035668
                                                         0.238409       0.015304
                                                         0.548949      -0.003054
                                                         1.426820       0.021875
                                                         4.590809       0.000000
                                                        23.194561       0.000000
                          1       4    3pz               0.109280       0.062233
                                                         0.155613       0.035668
                                                         0.238409       0.015304
                                                         0.548949      -0.003054
                                                         1.426820       0.021875
                                                         4.590809       0.000000
                                                        23.194561       0.000000

                          1       5    3dx2              0.109280       0.000986
                                                         0.155613       0.002022
                                                         0.238409       0.109458
                                                         0.548949       0.095099
                                                         1.426820       0.028232
                                                         4.590809       0.000000
                                                        23.194561       0.000000
                          1       5    3dxy              0.109280       0.001708
                                                         0.155613       0.003503
                                                         0.238409       0.189586
                                                         0.548949       0.164717
                                                         1.426820       0.048900
                                                         4.590809       0.000000
                                                        23.194561       0.000000
                          1       5    3dxz              0.109280       0.001708
                                                         0.155613       0.003503
                                                         0.238409       0.189586
                                                         0.548949       0.164717
                                                         1.426820       0.048900
                                                         4.590809       0.000000
                                                        23.194561       0.000000
                          1       5    3dy2              0.109280       0.000986
                                                         0.155613       0.002022
                                                         0.238409       0.109458
                                                         0.548949       0.095099
                                                         1.426820       0.028232
                                                         4.590809       0.000000
                                                        23.194561       0.000000
                          1       5    3dyz              0.109280       0.001708
                                                         0.155613       0.003503
                                                         0.238409       0.189586
                                                         0.548949       0.164717
                                                         1.426820       0.048900
                                                         4.590809       0.000000
                                                        23.194561       0.000000
                          1       5    3dz2              0.109280       0.000986
                                                         0.155613       0.002022
                                                         0.238409       0.109458
                                                         0.548949       0.095099
                                                         1.426820       0.028232
                                                         4.590809       0.000000
                                                        23.194561       0.000000

                          2       1    1s              506.011837       0.696781
                                                        92.776716       1.051665
                                                        25.955582       1.381280
                                                         8.916443       1.362748
                                                         3.462516       0.753460
                                                         1.426055       0.121219

     RI Auxiliary Basis Set             RI_aug-SZV-MOLOPT-ae_N_RI_025_s_p_d_f_g_

       Number of orbital shell sets:                                           9
       Number of orbital shells:                                               9
       Number of primitive Cartesian functions:                                9
       Number of Cartesian basis functions:                                   29
       Number of spherical basis functions:                                   25
       Norm type:                                                              2

       Normalised Cartesian orbitals:

                        Set   Shell   Orbital            Exponent    Coefficient

                          1       1    1s                0.250341       0.252237

                          2       1    5px               0.273284       0.281648
                          2       1    5py               0.273284       0.281648
                          2       1    5pz               0.273284       0.281648

                          3       1    8dx2              0.455299       0.415363
                          3       1    8dxy              0.455299       0.719430
                          3       1    8dxz              0.455299       0.719430
                          3       1    8dy2              0.455299       0.415363
                          3       1    8dyz              0.455299       0.719430
                          3       1    8dz2              0.455299       0.415363

                          4       1    9fx3              0.675974       0.609953
                          4       1    9fx2y             0.675974       1.363897
                          4       1    9fx2z             0.675974       1.363897
                          4       1    9fxy2             0.675974       1.363897
                          4       1    9fxyz             0.675974       2.362339
                          4       1    9fxz2             0.675974       1.363897
                          4       1    9fy3              0.675974       0.609953
                          4       1    9fy2z             0.675974       1.363897
                          4       1    9fyz2             0.675974       1.363897
                          4       1    9fz3              0.675974       0.609953

                          5       1    6px               0.737183       0.973664
                          5       1    6py               0.737183       0.973664
                          5       1    6pz               0.737183       0.973664

                          6       1    2s                0.787813       0.595974

                          7       1    3s                5.974522       2.723563

                          8       1    7px               7.247300      16.949636
                          8       1    7py               7.247300      16.949636
                          8       1    7pz               7.247300      16.949636

                          9       1    4s               47.432595      12.881539

       Atomic covalent radius [Angstrom]:                                  0.820

       Atomic van der Waals radius [Angstrom]:                             1.920

     The atoms of this atomic kind are PAW atoms (GAPW):
       Hard Gaussian function radius:                                      1.512
       Rho0 radius:                                                        1.512
       Maximum GTO radius used for PAW projector construction:            24.566

     GAPW Soft Basis Set                                  aug-SZV-MOLOPT-ae_soft

       Number of orbital shell sets:                                           2
       Number of orbital shells:                                               6
       Number of primitive Cartesian functions:                                7
       Number of Cartesian basis functions:                                   15
       Number of spherical basis functions:                                   14
       Norm type:                                                              2

       Normalised Cartesian orbitals:

                        Set   Shell   Orbital            Exponent    Coefficient

                          1       1    1s                0.109280       0.032606
                                                         0.155613       0.000000
                                                         0.238409       0.144712
                                                         0.548949       0.113742
                                                         1.426820      -0.031435

                          1       2    2s                0.109280      -0.049098
                                                         0.155613      -0.119813
                                                         0.238409      -0.025283
                                                         0.548949       0.056653
                                                         1.426820       0.132404

                          1       3    2px               0.109280       0.009109
                                                         0.155613       0.000000
                                                         0.238409       0.101125
                                                         0.548949       0.281559
                                                         1.426820       0.386539
                          1       3    2py               0.109280       0.009109
                                                         0.155613       0.000000
                                                         0.238409       0.101125
                                                         0.548949       0.281559
                                                         1.426820       0.386539
                          1       3    2pz               0.109280       0.009109
                                                         0.155613       0.000000
                                                         0.238409       0.101125
                                                         0.548949       0.281559
                                                         1.426820       0.386539

                          1       4    3px               0.109280       0.062233
                                                         0.155613       0.035668
                                                         0.238409       0.015304
                                                         0.548949      -0.003054
                                                         1.426820       0.021875
                          1       4    3py               0.109280       0.062233
                                                         0.155613       0.035668
                                                         0.238409       0.015304
                                                         0.548949      -0.003054
                                                         1.426820       0.021875
                          1       4    3pz               0.109280       0.062233
                                                         0.155613       0.035668
                                                         0.238409       0.015304
                                                         0.548949      -0.003054
                                                         1.426820       0.021875

                          1       5    3dx2              0.109280       0.000986
                                                         0.155613       0.002022
                                                         0.238409       0.109458
                                                         0.548949       0.095099
                                                         1.426820       0.028232
                          1       5    3dxy              0.109280       0.001708
                                                         0.155613       0.003503
                                                         0.238409       0.189586
                                                         0.548949       0.164717
                                                         1.426820       0.048900
                          1       5    3dxz              0.109280       0.001708
                                                         0.155613       0.003503
                                                         0.238409       0.189586
                                                         0.548949       0.164717
                                                         1.426820       0.048900
                          1       5    3dy2              0.109280       0.000986
                                                         0.155613       0.002022
                                                         0.238409       0.109458
                                                         0.548949       0.095099
                                                         1.426820       0.028232
                          1       5    3dyz              0.109280       0.001708
                                                         0.155613       0.003503
                                                         0.238409       0.189586
                                                         0.548949       0.164717
                                                         1.426820       0.048900
                          1       5    3dz2              0.109280       0.000986
                                                         0.155613       0.002022
                                                         0.238409       0.109458
                                                         0.548949       0.095099
                                                         1.426820       0.028232

                          2       1    1s                3.462516       0.753460
                                                         1.426055       0.121219

     AE Potential information for                                            ALL

       Description:                                       All-electron potential
                                          Krack, Parrinello, PCCP 2, 2105 (2000)

       Gaussian exponent of the core charge distribution:               2.655410
       Electronic configuration (s p d ...):                           4   1   0

  2. Atomic kind: N                                     Number of atoms:       1

     Orbital Basis Set                                         aug-SZV-MOLOPT-ae

       Number of orbital shell sets:                                           2
       Number of orbital shells:                                               6
       Number of primitive Cartesian functions:                               13
       Number of Cartesian basis functions:                                   15
       Number of spherical basis functions:                                   14
       Norm type:                                                              2

       Normalised Cartesian orbitals:

                        Set   Shell   Orbital            Exponent    Coefficient

                          1       1    1s                0.090000       0.000000
                                                         0.184684       0.048330
                                                         0.402911       0.214496
                                                         0.927724       0.168591
                                                         2.411326      -0.046594
                                                         7.758467      -0.155691
                                                        39.198808      -0.147969

                          1       2    2s                0.090000      -0.118940
                                                         0.184684       0.080942
                                                         0.402911      -0.164238
                                                         0.927724      -0.024406
                                                         2.411326       0.000000
                                                         7.758467       0.000000
                                                        39.198808       0.000000

                          1       3    2px               0.090000       0.000000
                                                         0.184684       0.017552
                                                         0.402911       0.194858
                                                         0.927724       0.542535
                                                         2.411326       0.744820
                                                         7.758467       0.695446
                                                        39.198808       0.525635
                          1       3    2py               0.090000       0.000000
                                                         0.184684       0.017552
                                                         0.402911       0.194858
                                                         0.927724       0.542535
                                                         2.411326       0.744820
                                                         7.758467       0.695446
                                                        39.198808       0.525635
                          1       3    2pz               0.090000       0.000000
                                                         0.184684       0.017552
                                                         0.402911       0.194858
                                                         0.927724       0.542535
                                                         2.411326       0.744820
                                                         7.758467       0.695446
                                                        39.198808       0.525635

                          1       4    3px               0.090000      -0.032237
                                                         0.184684      -0.080882
                                                         0.402911       0.112185
                                                         0.927724       1.067728
                                                         2.411326       0.000000
                                                         7.758467       0.000000
                                                        39.198808       0.000000
                          1       4    3py               0.090000      -0.032237
                                                         0.184684      -0.080882
                                                         0.402911       0.112185
                                                         0.927724       1.067728
                                                         2.411326       0.000000
                                                         7.758467       0.000000
                                                        39.198808       0.000000
                          1       4    3pz               0.090000      -0.032237
                                                         0.184684      -0.080882
                                                         0.402911       0.112185
                                                         0.927724       1.067728
                                                         2.411326       0.000000
                                                         7.758467       0.000000
                                                        39.198808       0.000000

                          1       5    3dx2              0.090000      -0.010633
                                                         0.184684      -0.050923
                                                         0.402911       0.103346
                                                         0.927724      -0.777682
                                                         2.411326       0.000000
                                                         7.758467       0.000000
                                                        39.198808       0.000000
                          1       5    3dxy              0.090000      -0.018417
                                                         0.184684      -0.088201
                                                         0.402911       0.179000
                                                         0.927724      -1.346985
                                                         2.411326       0.000000
                                                         7.758467       0.000000
                                                        39.198808       0.000000
                          1       5    3dxz              0.090000      -0.018417
                                                         0.184684      -0.088201
                                                         0.402911       0.179000
                                                         0.927724      -1.346985
                                                         2.411326       0.000000
                                                         7.758467       0.000000
                                                        39.198808       0.000000
                          1       5    3dy2              0.090000      -0.010633
                                                         0.184684      -0.050923
                                                         0.402911       0.103346
                                                         0.927724      -0.777682
                                                         2.411326       0.000000
                                                         7.758467       0.000000
                                                        39.198808       0.000000
                          1       5    3dyz              0.090000      -0.018417
                                                         0.184684      -0.088201
                                                         0.402911       0.179000
                                                         0.927724      -1.346985
                                                         2.411326       0.000000
                                                         7.758467       0.000000
                                                        39.198808       0.000000
                          1       5    3dz2              0.090000      -0.010633
                                                         0.184684      -0.050923
                                                         0.402911       0.103346
                                                         0.927724      -0.777682
                                                         2.411326       0.000000
                                                         7.758467       0.000000
                                                        39.198808       0.000000

                          2       1    1s             1027.828458       1.185541
                                                       188.451223       1.789359
                                                        52.721861       2.350183
                                                        18.111382       2.318652
                                                         7.033180       1.281976
                                                         2.896652       0.206248

     RI Auxiliary Basis Set             RI_aug-SZV-MOLOPT-ae_N_RI_043_s_p_d_f_g_

       Number of orbital shell sets:                                          15
       Number of orbital shells:                                              15
       Number of primitive Cartesian functions:                               15
       Number of Cartesian basis functions:                                   49
       Number of spherical basis functions:                                   43
       Norm type:                                                              2

       Normalised Cartesian orbitals:

                        Set   Shell   Orbital            Exponent    Coefficient

                          1       1    1s                0.348881       0.323533

                          2       1   12dx2              0.415899       0.354517
                          2       1   12dxy              0.415899       0.614042
                          2       1   12dxz              0.415899       0.614042
                          2       1   12dy2              0.415899       0.354517
                          2       1   12dyz              0.415899       0.614042
                          2       1   12dz2              0.415899       0.354517

                          3       1    7px               0.565430       0.698898
                          3       1    7py               0.565430       0.698898
                          3       1    7pz               0.565430       0.698898

                          4       1    2s                0.604256       0.488456

                          5       1    8px               0.736384       0.972345
                          5       1    8py               0.736384       0.972345
                          5       1    8pz               0.736384       0.972345

                          6       1   15fx3              1.197807       2.209658
                          6       1   15fx2y             1.197807       4.940945
                          6       1   15fx2z             1.197807       4.940945
                          6       1   15fxy2             1.197807       4.940945
                          6       1   15fxyz             1.197807       8.557969
                          6       1   15fxz2             1.197807       4.940945
                          6       1   15fy3              1.197807       2.209658
                          6       1   15fy2z             1.197807       4.940945
                          6       1   15fyz2             1.197807       4.940945
                          6       1   15fz3              1.197807       2.209658

                          7       1   13dx2              1.339145       2.743833
                          7       1   13dxy              1.339145       4.752458
                          7       1   13dxz              1.339145       4.752458
                          7       1   13dy2              1.339145       2.743833
                          7       1   13dyz              1.339145       4.752458
                          7       1   13dz2              1.339145       2.743833

                          8       1    3s                2.115726       1.250273

                          9       1    9px               3.057998       5.764167
                          9       1    9py               3.057998       5.764167
                          9       1    9pz               3.057998       5.764167

                         10       1   14dx2              5.406341      31.549351
                         10       1   14dxy              5.406341      54.645078
                         10       1   14dxz              5.406341      54.645078
                         10       1   14dy2              5.406341      31.549351
                         10       1   14dyz              5.406341      54.645078
                         10       1   14dz2              5.406341      31.549351

                         11       1    4s                8.101925       3.422562

                         12       1   10px               9.242623      22.971223
                         12       1   10py               9.242623      22.971223
                         12       1   10pz               9.242623      22.971223

                         13       1   11px              24.533825      77.829934
                         13       1   11py              24.533825      77.829934
                         13       1   11pz              24.533825      77.829934

                         14       1    5s               30.207474       9.183239

                         15       1    6s              110.078037      24.220639

       Atomic covalent radius [Angstrom]:                                  0.750

       Atomic van der Waals radius [Angstrom]:                             1.550

     The atoms of this atomic kind are PAW atoms (GAPW):
       Hard Gaussian function radius:                                      1.512
       Rho0 radius:                                                        1.512
       Maximum GTO radius used for PAW projector construction:            24.566

     GAPW Soft Basis Set                                  aug-SZV-MOLOPT-ae_soft

       Number of orbital shell sets:                                           2
       Number of orbital shells:                                               6
       Number of primitive Cartesian functions:                                6
       Number of Cartesian basis functions:                                   15
       Number of spherical basis functions:                                   14
       Norm type:                                                              2

       Normalised Cartesian orbitals:

                        Set   Shell   Orbital            Exponent    Coefficient

                          1       1    1s                0.090000       0.000000
                                                         0.184684       0.048330
                                                         0.402911       0.214496
                                                         0.927724       0.168591
                                                         2.411326      -0.046594

                          1       2    2s                0.090000      -0.118940
                                                         0.184684       0.080942
                                                         0.402911      -0.164238
                                                         0.927724      -0.024406
                                                         2.411326       0.000000

                          1       3    2px               0.090000       0.000000
                                                         0.184684       0.017552
                                                         0.402911       0.194858
                                                         0.927724       0.542535
                                                         2.411326       0.744820
                          1       3    2py               0.090000       0.000000
                                                         0.184684       0.017552
                                                         0.402911       0.194858
                                                         0.927724       0.542535
                                                         2.411326       0.744820
                          1       3    2pz               0.090000       0.000000
                                                         0.184684       0.017552
                                                         0.402911       0.194858
                                                         0.927724       0.542535
                                                         2.411326       0.744820

                          1       4    3px               0.090000      -0.032237
                                                         0.184684      -0.080882
                                                         0.402911       0.112185
                                                         0.927724       1.067728
                                                         2.411326       0.000000
                          1       4    3py               0.090000      -0.032237
                                                         0.184684      -0.080882
                                                         0.402911       0.112185
                                                         0.927724       1.067728
                                                         2.411326       0.000000
                          1       4    3pz               0.090000      -0.032237
                                                         0.184684      -0.080882
                                                         0.402911       0.112185
                                                         0.927724       1.067728
                                                         2.411326       0.000000

                          1       5    3dx2              0.090000      -0.010633
                                                         0.184684      -0.050923
                                                         0.402911       0.103346
                                                         0.927724      -0.777682
                                                         2.411326       0.000000
                          1       5    3dxy              0.090000      -0.018417
                                                         0.184684      -0.088201
                                                         0.402911       0.179000
                                                         0.927724      -1.346985
                                                         2.411326       0.000000
                          1       5    3dxz              0.090000      -0.018417
                                                         0.184684      -0.088201
                                                         0.402911       0.179000
                                                         0.927724      -1.346985
                                                         2.411326       0.000000
                          1       5    3dy2              0.090000      -0.010633
                                                         0.184684      -0.050923
                                                         0.402911       0.103346
                                                         0.927724      -0.777682
                                                         2.411326       0.000000
                          1       5    3dyz              0.090000      -0.018417
                                                         0.184684      -0.088201
                                                         0.402911       0.179000
                                                         0.927724      -1.346985
                                                         2.411326       0.000000
                          1       5    3dz2              0.090000      -0.010633
                                                         0.184684      -0.050923
                                                         0.402911       0.103346
                                                         0.927724      -0.777682
                                                         2.411326       0.000000

                          2       1    1s                2.896652       0.206248

     AE Potential information for                                            ALL

       Description:                                       All-electron potential
                                          Krack, Parrinello, PCCP 2, 2105 (2000)

       Gaussian exponent of the core charge distribution:               5.979100
       Electronic configuration (s p d ...):                           4   3   0


 MOLECULE KIND INFORMATION


 All atoms are their own molecule, skipping detailed information


 TOTAL NUMBERS AND MAXIMUM NUMBERS

  Total number of            - Atomic kinds:                                   2
                             - Atoms:                                          2
                             - Shell sets:                                     4
                             - Shells:                                        12
                             - Primitive Cartesian functions:                 26
                             - Cartesian basis functions:                     30
                             - Spherical basis functions:                     28

  Maximum angular momentum of the orbital basis functions:                     2


 MODULE QUICKSTEP: ATOMIC COORDINATES IN ANGSTROM

   Atom Kind Element         X             Y             Z       Z(eff)     Mass
      1    1 B     5     14.334900     15.000000     15.000000   5.0000  10.8110
      2    2 N     7     15.665100     15.000000     15.000000   7.0000  14.0067



 SCF PARAMETERS         Density guess:                                    ATOMIC
                        --------------------------------------------------------
                        max_scf:                                             500
                        max_scf_history:                                       0
                        max_diis:                                              4
                        --------------------------------------------------------
                        eps_scf:                                        1.00E-06
                        eps_scf_history:                                0.00E+00
                        eps_diis:                                       1.00E-01
                        eps_eigval:                                     1.00E-05
                        --------------------------------------------------------
                        level_shift [a.u.]:                             0.000000
                        added MOs                                        22    0
                        --------------------------------------------------------
                        Mixing method:                            BROYDEN_MIXING
                                                charge density mixing in g-space
                        --------------------------------------------------------
                        No outer SCF

 PW_GRID| Information for grid number                                          1
 PW_GRID| Grid distributed over                                    24 processors
 PW_GRID| Real space group dimensions                                    24    1
 PW_GRID| the grid is blocked:                                                NO
 PW_GRID| Cutoff [a.u.]                                                    250.0
 PW_GRID| spherical cutoff:                                                   NO
 PW_GRID|   Bounds   1           -202     202                Points:         405
 PW_GRID|   Bounds   2           -202     202                Points:         405
 PW_GRID|   Bounds   3           -202     202                Points:         405
 PW_GRID| Volume element (a.u.^3)  0.2743E-02     Volume (a.u.^3)    182205.0337
 PW_GRID| Grid span                                                    FULLSPACE
 PW_GRID|   Distribution                         Average         Max         Min
 PW_GRID|   G-Vectors                          2767921.9     2768175     2767770
 PW_GRID|   G-Rays                                6834.4        6835        6834
 PW_GRID|   Real Space Points                  2767921.9     2788425     2624400

 PW_GRID| Information for grid number                                          2
 PW_GRID| Number of the reference grid                                         1
 PW_GRID| Grid distributed over                                    24 processors
 PW_GRID| Real space group dimensions                                    24    1
 PW_GRID| the grid is blocked:                                                NO
 PW_GRID| Cutoff [a.u.]                                                     83.3
 PW_GRID| spherical cutoff:                                                   NO
 PW_GRID|   Bounds   1           -120     119                Points:         240
 PW_GRID|   Bounds   2           -120     119                Points:         240
 PW_GRID|   Bounds   3           -120     119                Points:         240
 PW_GRID| Volume element (a.u.^3)  0.1318E-01     Volume (a.u.^3)    182205.0337
 PW_GRID| Grid span                                                    FULLSPACE
 PW_GRID|   Distribution                         Average         Max         Min
 PW_GRID|   G-Vectors                           576000.0      576240      575760
 PW_GRID|   G-Rays                                2400.0        2401        2399
 PW_GRID|   Real Space Points                   576000.0      576000      576000

 PW_GRID| Information for grid number                                          3
 PW_GRID| Number of the reference grid                                         1
 PW_GRID| Grid distributed over                                    24 processors
 PW_GRID| Real space group dimensions                                    24    1
 PW_GRID| the grid is blocked:                                                NO
 PW_GRID| Cutoff [a.u.]                                                     27.8
 PW_GRID| spherical cutoff:                                                   NO
 PW_GRID|   Bounds   1            -67      67                Points:         135
 PW_GRID|   Bounds   2            -67      67                Points:         135
 PW_GRID|   Bounds   3            -67      67                Points:         135
 PW_GRID| Volume element (a.u.^3)  0.7406E-01     Volume (a.u.^3)    182205.0337
 PW_GRID| Grid span                                                    FULLSPACE
 PW_GRID|   Distribution                         Average         Max         Min
 PW_GRID|   G-Vectors                           102515.6      102735      102330
 PW_GRID|   G-Rays                                 759.4         761         758
 PW_GRID|   Real Space Points                   102515.6      109350       91125

 PW_GRID| Information for grid number                                          4
 PW_GRID| Number of the reference grid                                         1
 PW_GRID| Grid distributed over                                    24 processors
 PW_GRID| Real space group dimensions                                    24    1
 PW_GRID| the grid is blocked:                                                NO
 PW_GRID| Cutoff [a.u.]                                                      9.3
 PW_GRID| spherical cutoff:                                                   NO
 PW_GRID|   Bounds   1            -40      39                Points:          80
 PW_GRID|   Bounds   2            -40      39                Points:          80
 PW_GRID|   Bounds   3            -40      39                Points:          80
 PW_GRID| Volume element (a.u.^3)  0.3559         Volume (a.u.^3)    182205.0337
 PW_GRID| Grid span                                                    FULLSPACE
 PW_GRID|   Distribution                         Average         Max         Min
 PW_GRID|   G-Vectors                            21333.3       21360       21280
 PW_GRID|   G-Rays                                 266.7         267         266
 PW_GRID|   Real Space Points                    21333.3       25600       19200

 POISSON| Solver                                                         WAVELET
 POISSON| Wavelet| Scaling function                                           40
 POISSON| Periodicity                                                       NONE

 RS_GRID| Information for grid number                                          1
 RS_GRID|   Bounds   1           -202     202                Points:         405
 RS_GRID|   Bounds   2           -202     202                Points:         405
 RS_GRID|   Bounds   3           -202     202                Points:         405
 RS_GRID| Real space distribution over                                  4 groups
 RS_GRID| Real space distribution along direction                              2
 RS_GRID| Border size                                                         34
 RS_GRID| Real space distribution over                                  6 groups
 RS_GRID| Real space distribution along direction                              3
 RS_GRID| Border size                                                         34
 RS_GRID|   Distribution                         Average         Max         Min
 RS_GRID|   Planes                                 169.2         170         169
 RS_GRID|   Distribution                         Average         Max         Min
 RS_GRID|   Planes                                 135.5         136         135

 RS_GRID| Information for grid number                                          2
 RS_GRID|   Bounds   1           -120     119                Points:         240
 RS_GRID|   Bounds   2           -120     119                Points:         240
 RS_GRID|   Bounds   3           -120     119                Points:         240
 RS_GRID| Real space distribution over                                  4 groups
 RS_GRID| Real space distribution along direction                              2
 RS_GRID| Border size                                                         37
 RS_GRID| Real space distribution over                                  6 groups
 RS_GRID| Real space distribution along direction                              3
 RS_GRID| Border size                                                         37
 RS_GRID|   Distribution                         Average         Max         Min
 RS_GRID|   Planes                                 134.0         134         134
 RS_GRID|   Distribution                         Average         Max         Min
 RS_GRID|   Planes                                 114.0         114         114

 RS_GRID| Information for grid number                                          3
 RS_GRID|   Bounds   1            -67      67                Points:         135
 RS_GRID|   Bounds   2            -67      67                Points:         135
 RS_GRID|   Bounds   3            -67      67                Points:         135
 RS_GRID| Real space fully replicated
 RS_GRID| Group size                                                           1

 RS_GRID| Information for grid number                                          4
 RS_GRID|   Bounds   1            -40      39                Points:          80
 RS_GRID|   Bounds   2            -40      39                Points:          80
 RS_GRID|   Bounds   3            -40      39                Points:          80
 RS_GRID| Real space fully replicated
 RS_GRID| Group size                                                           1

  HFX_INFO| Replica ID:                                                        1
  HFX_INFO| FRACTION:                                               0.2500000000
  HFX_INFO| Interaction Potential:                                       COULOMB
  HFX_INFO| EPS_SCHWARZ:                                                 1.0E-10
  HFX_INFO| EPS_SCHWARZ_FORCES                                           1.0E-08
  HFX_INFO| EPS_STORAGE_SCALING:                                         1.0E+00
  HFX_INFO| NBINS:                                                            64
  HFX_INFO| BLOCK_SIZE:                                                        1
  HFX_INFO| Number of periodic shells considered:                           NONE
  HFX_INFO| Number of periodic cells considered:                            NONE

 
 RI-RPA| using GPW style
 

 OVERLAP MATRIX CONDITION NUMBER
 1-Norm Condition Number (Estimate)
   CN : |A|*|A^-1|:  4.691E+000 *  1.121E+002   = 5.258E+002  Log(1-CN):  2.7208
 1-Norm and 2-Norm Condition Numbers using Diagonalization
   CN : |A|*|A^-1|:  4.691E+000 *  1.121E+002   = 5.258E+002  Log(1-CN):  2.7208
   CN : max/min ev:  3.450E+000 /  1.442E-002   = 2.392E+002  Log(2-CN):  2.3788

 Number of electrons:                                                         12
 Number of occupied orbitals:                                                  6
 Number of molecular orbitals:                                                28

 Number of orbital functions:                                                 28
 Number of independent orbital functions:                                     28

 Extrapolation method: initial_guess

 Atomic guess: The first density matrix is obtained in terms of atomic orbitals
               and electronic configurations assigned to each atomic kind

 Guess for atomic kind: B

 Electronic structure
    Total number of core electrons                                          0.00
    Total number of valence electrons                                       5.00
    Total number of electrons                                               5.00
    Multiplicity                                                   not specified
    S      2.00  2.00
    P      1.00


 *******************************************************************************
                  Iteration          Convergence                     Energy [au]
 *******************************************************************************
                          1        0.612489E-01                 -24.304439508901
                          2        0.220484E-01                 -24.305945213911
                          3        0.367076E-03                 -24.306247196960
                          4        0.456899E-05                 -24.306247340970
                          5        0.241868E-07                 -24.306247340986

 Energy components [Hartree]           Total Energy ::          -24.306247340986
                                        Band Energy ::          -13.825803348850
                                     Kinetic Energy ::           23.970530113188
                                   Potential Energy ::          -48.276777454174
                                      Virial (-V/T) ::            2.014005415242
                                        Core Energy ::          -32.361048727638
                                          XC Energy ::           -3.546375173816
                                     Coulomb Energy ::           11.601176560468

 Orbital energies  State     L     Occupation   Energy[a.u.]          Energy[eV]

                       1     0          2.000      -6.531739         -177.737651
                       2     0          2.000      -0.324835           -8.839199

                       1     1          1.000      -0.112657           -3.065543


 Total Electron Density at R=0:                                        58.671969

 Guess for atomic kind: N

 Electronic structure
    Total number of core electrons                                          0.00
    Total number of valence electrons                                       7.00
    Total number of electrons                                               7.00
    Multiplicity                                                   not specified
    S      2.00  2.00
    P      3.00


 *******************************************************************************
                  Iteration          Convergence                     Energy [au]
 *******************************************************************************
                          1        0.325929                     -53.884153266199
                          2        0.157204                     -53.911997171341
                          3        0.119206E-02                 -53.921312470162
                          4        0.146154E-04                 -53.921312958938
                          5        0.703430E-05                 -53.921312958993
                          6        0.461880E-05                 -53.921312959002
                          7        0.894723E-08                 -53.921312959009

 Energy components [Hartree]           Total Energy ::          -53.921312959009
                                        Band Energy ::          -30.455902305516
                                     Kinetic Energy ::           53.519410139912
                                   Potential Energy ::         -107.440723098921
                                      Virial (-V/T) ::            2.007509477740
                                        Core Energy ::          -73.216670532427
                                          XC Energy ::           -6.109461717977
                                     Coulomb Energy ::           25.404819291395

 Orbital energies  State     L     Occupation   Energy[a.u.]          Energy[eV]

                       1     0          2.000     -14.102420         -383.746365
                       2     0          2.000      -0.702220          -19.108372

                       1     1          3.000      -0.282208           -7.679258


 Total Electron Density at R=0:                                       175.030911
 Re-scaling the density matrix to get the right number of electrons
                  # Electrons              Trace(P)               Scaling factor
                           12                12.000                        1.000


 SCF WAVEFUNCTION OPTIMIZATION

  Step     Update method      Time    Convergence         Total energy    Change
  ------------------------------------------------------------------------------

  HFX_MEM_INFO| Est. max. program size before HFX [MiB]:                    2150
  HFX_MEM_INFO| Number of cart. primitive ERI's calculated:            190585491
  HFX_MEM_INFO| Number of sph. ERI's calculated:                          230496
  HFX_MEM_INFO| Number of sph. ERI's stored in-core:                      230496
  HFX_MEM_INFO| Number of sph. ERI's stored on disk:                           0
  HFX_MEM_INFO| Number of sph. ERI's calculated on the fly:                    0
  HFX_MEM_INFO| Total memory consumption ERI's RAM [MiB]:                      2
  HFX_MEM_INFO| Whereof max-vals [MiB]:                                        1
  HFX_MEM_INFO| Total compression factor ERI's RAM:                         1.11
  HFX_MEM_INFO| Total memory consumption ERI's disk [MiB]:                     0
  HFX_MEM_INFO| Total compression factor ERI's disk:                        0.00
  HFX_MEM_INFO| Size of density/Fock matrix [MiB]:                             0
  HFX_MEM_INFO| Size of buffers [MiB]:                                         0
  HFX_MEM_INFO| Est. max. program size after HFX  [MiB]:                    2660

     1 NoMix/Diag. 0.10E+00   10.1     0.78888850       -79.3263641518 -7.93E+01
     2 Broy./Diag. 0.10E+00    4.8     0.10888276       -77.9833410791  1.34E+00
     3 Broy./Diag. 0.10E+00    4.9     0.10069508       -77.7959818236  1.87E-01
     4 Broy./Diag. 0.10E+00    4.9     0.43518977       -78.0607406195 -2.65E-01
     5 Broy./Diag. 0.10E+00    4.9     0.07106224       -78.9139954222 -8.53E-01
     6 Broy./Diag. 0.10E+00    5.0     0.21748682       -78.4904106898  4.24E-01
     7 Broy./Diag. 0.10E+00    5.0     0.40815236       -78.2159617309  2.74E-01
     8 Broy./Diag. 0.10E+00    5.1     0.21701973       -79.0200397902 -8.04E-01
     9 Broy./Diag. 0.10E+00    5.3     0.17284210       -79.2420643690 -2.22E-01
    10 Broy./Diag. 0.10E+00    5.3     0.12170452       -79.3862064436 -1.44E-01
    11 Broy./Diag. 0.10E+00    5.4     0.07707763       -79.4579140732 -7.17E-02
    12 Broy./Diag. 0.10E+00    5.3     0.05274733       -79.4764763885 -1.86E-02
    13 Broy./Diag. 0.10E+00    5.3     0.03551410       -79.5126207127 -3.61E-02
    14 Broy./Diag. 0.10E+00    5.3     0.03780059       -79.4794085788  3.32E-02
    15 Broy./Diag. 0.10E+00    5.3     0.07325210       -79.4478429726  3.16E-02
    16 Broy./Diag. 0.10E+00    5.3     0.08396678       -79.3692212907  7.86E-02
    17 Broy./Diag. 0.10E+00    5.3     0.11740836       -79.2825168050  8.67E-02
    18 Broy./Diag. 0.10E+00    5.3     0.12231009       -79.1616009300  1.21E-01
    19 Broy./Diag. 0.10E+00    5.4     0.07311433       -79.0630027013  9.86E-02
    20 Broy./Diag. 0.10E+00    5.3     0.02793921       -79.0281908650  3.48E-02
    21 Broy./Diag. 0.10E+00    5.4     0.05288094       -79.0398758984 -1.17E-02
    22 Broy./Diag. 0.10E+00    5.3     0.05232335       -78.9900529465  4.98E-02
    23 Broy./Diag. 0.10E+00    5.4     0.03240270       -78.9431149127  4.69E-02
    24 Broy./Diag. 0.10E+00    5.4     0.01620284       -78.9193381804  2.38E-02
    25 Broy./Diag. 0.10E+00    5.3     0.04492356       -78.9076131045  1.17E-02
    26 Broy./Diag. 0.10E+00    5.3     0.03366400       -78.8545627310  5.31E-02
    27 Broy./Diag. 0.10E+00    5.3     0.01879318       -78.8228726691  3.17E-02
    28 Broy./Diag. 0.10E+00    5.3     0.01287918       -78.8208719393  2.00E-03
    29 Broy./Diag. 0.10E+00    5.3     0.06686862       -78.8533108806 -3.24E-02
    30 Broy./Diag. 0.10E+00    5.3     0.04824991       -78.9513836603 -9.81E-02
    31 Broy./Diag. 0.10E+00    5.3     0.07729167       -79.0048757022 -5.35E-02
    32 Broy./Diag. 0.10E+00    5.3     0.05767844       -79.0911187505 -8.62E-02
    33 Broy./Diag. 0.10E+00    5.4     0.04428321       -79.1101612151 -1.90E-02
    34 Broy./Diag. 0.10E+00    5.4     0.06332472       -79.0131087806  9.71E-02
    35 Broy./Diag. 0.10E+00    5.3     0.02189678       -78.9289227599  8.42E-02
    36 Broy./Diag. 0.10E+00    5.3     0.11332330       -78.9433662407 -1.44E-02
    37 Broy./Diag. 0.10E+00    5.3     0.13158651       -79.1194792835 -1.76E-01
    38 Broy./Diag. 0.10E+00    5.3     0.06896593       -79.2514499778 -1.32E-01
    39 Broy./Diag. 0.10E+00    5.3     0.02474388       -79.2760375165 -2.46E-02
    40 Broy./Diag. 0.10E+00    5.4     0.05601390       -79.2406678593  3.54E-02
    41 Broy./Diag. 0.10E+00    5.4     0.07059366       -79.1601654998  8.05E-02
    42 Broy./Diag. 0.10E+00    5.4     0.06988281       -79.0849529785  7.52E-02
    43 Broy./Diag. 0.10E+00    5.3     0.04720548       -79.0219880069  6.30E-02
    44 Broy./Diag. 0.10E+00    5.4     0.02734088       -78.9886889124  3.33E-02
    45 Broy./Diag. 0.10E+00    5.3     0.02374533       -78.9757955962  1.29E-02
    46 Broy./Diag. 0.10E+00    5.3     0.00848906       -78.9596074958  1.62E-02
    47 Broy./Diag. 0.10E+00    5.3     0.01123107       -78.9607724710 -1.16E-03
    48 Broy./Diag. 0.10E+00    5.3     0.01237817       -78.9536929787  7.08E-03
    49 Broy./Diag. 0.10E+00    5.4     0.00813255       -78.9444082554  9.28E-03
    50 Broy./Diag. 0.10E+00    5.3     0.00704006       -78.9405973574  3.81E-03
    51 Broy./Diag. 0.10E+00    5.4     0.01019740       -78.9358211821  4.78E-03
    52 Broy./Diag. 0.10E+00    5.3     0.01677021       -78.9336413416  2.18E-03
    53 Broy./Diag. 0.10E+00    5.3     0.06562889       -78.9730159339 -3.94E-02
    54 Broy./Diag. 0.10E+00    5.3     0.07191387       -79.0572211674 -8.42E-02
    55 Broy./Diag. 0.10E+00    5.3     0.06525586       -79.1188757129 -6.17E-02
    56 Broy./Diag. 0.10E+00    5.3     0.04274713       -79.1624470416 -4.36E-02
    57 Broy./Diag. 0.10E+00    5.4     0.01175838       -79.1821302938 -1.97E-02
    58 Broy./Diag. 0.10E+00    5.4     0.03397499       -79.1639142033  1.82E-02
    59 Broy./Diag. 0.10E+00    5.3     0.01270377       -79.1216616691  4.23E-02
    60 Broy./Diag. 0.10E+00    5.3     0.00554866       -79.1173507571  4.31E-03
    61 Broy./Diag. 0.10E+00    5.3     0.02010658       -79.1296599968 -1.23E-02
    62 Broy./Diag. 0.10E+00    5.3     0.02100590       -79.1550052752 -2.53E-02
    63 Broy./Diag. 0.10E+00    5.4     0.01020833       -79.1714459364 -1.64E-02
[...]
   418 Broy./Diag. 0.10E+00    5.3     0.09079012       -79.1502840547  1.46E-01
   419 Broy./Diag. 0.10E+00    5.3     0.06233796       -79.0815058121  6.88E-02
   420 Broy./Diag. 0.10E+00    5.3     0.05848321       -79.0702788570  1.12E-02
   421 Broy./Diag. 0.10E+00    5.3     0.06015656       -79.0421695585  2.81E-02
   422 Broy./Diag. 0.10E+00    5.3     0.05879998       -79.0160833353  2.61E-02
   423 Broy./Diag. 0.10E+00    5.3     0.05589333       -79.0048223405  1.13E-02
   424 Broy./Diag. 0.10E+00    5.3     0.05837989       -79.0170657304 -1.22E-02
   425 Broy./Diag. 0.10E+00    5.4     0.06690502       -79.0545746684 -3.75E-02
   426 Broy./Diag. 0.10E+00    5.4     0.06479316       -79.1122578861 -5.77E-02
   427 Broy./Diag. 0.10E+00    5.4     0.07256271       -79.1535732845 -4.13E-02
   428 Broy./Diag. 0.10E+00    5.3     0.10979739       -79.1705506141 -1.70E-02
   429 Broy./Diag. 0.10E+00    5.4     0.09376544       -79.2570838249 -8.65E-02
   430 Broy./Diag. 0.10E+00    5.3     0.08220982       -79.2925787205 -3.55E-02
   431 Broy./Diag. 0.10E+00    5.3     0.06638982       -79.3163166076 -2.37E-02
   432 Broy./Diag. 0.10E+00    5.3     0.04976690       -79.3997029050 -8.34E-02
   433 Broy./Diag. 0.10E+00    5.4     0.02743765       -79.4979864463 -9.83E-02
   434 Broy./Diag. 0.10E+00    5.3     0.00783254       -79.5291394854 -3.12E-02
   435 Broy./Diag. 0.10E+00    5.4     0.01324954       -79.5163774783  1.28E-02
   436 Broy./Diag. 0.10E+00    5.4     0.06235922       -79.4788392425  3.75E-02
   437 Broy./Diag. 0.10E+00    5.3     0.04519365       -79.3499033503  1.29E-01
   438 Broy./Diag. 0.10E+00    5.4     0.06702354       -79.2589436405  9.10E-02
   439 Broy./Diag. 0.10E+00    5.3     0.04227470       -79.1862412641  7.27E-02
   440 Broy./Diag. 0.10E+00    5.3     0.49948607       -79.1618247772  2.44E-02
   441 Broy./Diag. 0.10E+00    5.4     0.20443559       -78.8463168956  3.16E-01
   442 Broy./Diag. 0.10E+00    5.3     0.16048186       -78.9281235855 -8.18E-02
   443 Broy./Diag. 0.10E+00    5.3     0.06753094       -79.0641705860 -1.36E-01
   444 Broy./Diag. 0.10E+00    5.4     0.07067484       -79.0761717347 -1.20E-02
   445 Broy./Diag. 0.10E+00    5.4     0.05055842       -79.0474556514  2.87E-02
   446 Broy./Diag. 0.10E+00    5.4     0.03246028       -79.0598130727 -1.24E-02
   447 Broy./Diag. 0.10E+00    5.3     0.02707774       -79.1037123208 -4.39E-02
   448 Broy./Diag. 0.10E+00    5.4     0.01907207       -79.0873832784  1.63E-02
   449 Broy./Diag. 0.10E+00    5.4     0.04577673       -79.0768773538  1.05E-02
   450 Broy./Diag. 0.10E+00    5.4     0.17490341       -79.1512737361 -7.44E-02
   451 Broy./Diag. 0.10E+00    5.4     0.13996473       -79.3929661822 -2.42E-01
   452 Broy./Diag. 0.10E+00    5.5     0.14799845       -79.5114224276 -1.18E-01
   453 Broy./Diag. 0.10E+00    5.4     0.11800676       -79.6554551278 -1.44E-01
   454 Broy./Diag. 0.10E+00    5.4     0.07812370       -79.7707030644 -1.15E-01
   455 Broy./Diag. 0.10E+00    5.4     0.05575238       -79.8468299591 -7.61E-02
   456 Broy./Diag. 0.10E+00    5.5     0.04791771       -79.8929458064 -4.61E-02
   457 Broy./Diag. 0.10E+00    5.4     0.06930673       -79.9027657880 -9.82E-03
   458 Broy./Diag. 0.10E+00    5.4     0.07966425       -79.9104569038 -7.69E-03
   459 Broy./Diag. 0.10E+00    5.4     0.09198597       -79.9270155874 -1.66E-02
   460 Broy./Diag. 0.10E+00    5.3     0.20944188       -79.8831972774  4.38E-02
   461 Broy./Diag. 0.10E+00    5.5     0.29296481       -79.6770003802  2.06E-01
   462 Broy./Diag. 0.10E+00    5.3     0.28488294       -79.4524618891  2.25E-01
   463 Broy./Diag. 0.10E+00    5.3     0.22479665       -79.2538029061  1.99E-01
   464 Broy./Diag. 0.10E+00    5.3     0.15772970       -79.0857952436  1.68E-01
   465 Broy./Diag. 0.10E+00    5.4     0.06649492       -78.9652595205  1.21E-01
   466 Broy./Diag. 0.10E+00    5.3     0.04163633       -78.9185559906  4.67E-02
   467 Broy./Diag. 0.10E+00    5.3     0.05676144       -78.8840191001  3.45E-02
   468 Broy./Diag. 0.10E+00    5.3     0.54459263       -78.7483219870  1.36E-01
   469 Broy./Diag. 0.10E+00    5.4     0.14969746       -78.4342816242  3.14E-01
   470 Broy./Diag. 0.10E+00    5.3     0.28172010       -78.6266958965 -1.92E-01
   471 Broy./Diag. 0.10E+00    5.4     0.22990648       -78.6324892454 -5.79E-03
   472 Broy./Diag. 0.10E+00    5.3     0.12562246       -79.0828236151 -4.50E-01
   473 Broy./Diag. 0.10E+00    5.4     0.03071180       -79.2660798776 -1.83E-01
   474 Broy./Diag. 0.10E+00    5.3     0.28590979       -79.3171305959 -5.11E-02
   475 Broy./Diag. 0.10E+00    5.4     0.23953047       -79.6734335513 -3.56E-01
   476 Broy./Diag. 0.10E+00    5.4     0.08875554       -79.8854776853 -2.12E-01
   477 Broy./Diag. 0.10E+00    5.4     0.08882485       -79.8780500861  7.43E-03
   478 Broy./Diag. 0.10E+00    5.4     0.06782075       -79.8621067098  1.59E-02
   479 Broy./Diag. 0.10E+00    5.3     0.25345393       -79.8500636216  1.20E-02
   480 Broy./Diag. 0.10E+00    5.3     0.07876465       -79.4921627916  3.58E-01
   481 Broy./Diag. 0.10E+00    5.4     0.07238263       -79.5061539928 -1.40E-02
   482 Broy./Diag. 0.10E+00    5.4     0.12502282       -79.4186634557  8.75E-02
   483 Broy./Diag. 0.10E+00    5.3     0.69928886       -79.2101124867  2.09E-01
   484 Broy./Diag. 0.10E+00    5.3     0.49681326       -78.5703287612  6.40E-01
   485 Broy./Diag. 0.10E+00    5.3     0.36019883       -78.3053599954  2.65E-01
   486 Broy./Diag. 0.10E+00    5.3     0.36940030       -79.0425381838 -7.37E-01
   487 Broy./Diag. 0.10E+00    5.3     0.09036715       -79.5115079373 -4.69E-01
   488 Broy./Diag. 0.10E+00    5.3     0.16173307       -79.4795056061  3.20E-02
   489 Broy./Diag. 0.10E+00    5.4     0.11340510       -79.2073868582  2.72E-01
   490 Broy./Diag. 0.10E+00    5.3     0.14049544       -79.0477650947  1.60E-01
   491 Broy./Diag. 0.10E+00    5.3     0.06241085       -78.8472155533  2.01E-01
   492 Broy./Diag. 0.10E+00    5.3     0.03590365       -78.8074398081  3.98E-02
   493 Broy./Diag. 0.10E+00    5.3     0.09713985       -78.8127856736 -5.35E-03
   494 Broy./Diag. 0.10E+00    5.3     0.04190878       -78.9476979656 -1.35E-01
   495 Broy./Diag. 0.10E+00    5.4     0.02626703       -78.9115116222  3.62E-02
   496 Broy./Diag. 0.10E+00    5.4     0.02855973       -78.8906106129  2.09E-02
   497 Broy./Diag. 0.10E+00    5.4     0.08041378       -78.9122904817 -2.17E-02
   498 Broy./Diag. 0.10E+00    5.3     0.19290019       -79.0331169325 -1.21E-01
   499 Broy./Diag. 0.10E+00    5.4     0.34738000       -79.3391250812 -3.06E-01
   500 Broy./Diag. 0.10E+00    5.4     0.30435277       -79.7401001353 -4.01E-01

  Leaving inner SCF loop after reaching   500 steps.


  Electronic density on regular grids:         -8.6024050686        3.3975949314
  Core density on regular grids:               12.0000000000        0.0000000000
  Hard and soft densities (Lebedev):          -21.6926573479      -18.3056401120
  Total Rho_soft + Rho1_hard - Rho1_soft      -11.9894223044
  Total charge density (r-space):               0.0105776956
  Total Rho_soft + Rho0_soft (g-space):         0.0105776174

  Overlap energy of the core charge distribution:               0.00001993455823
  Self energy of the core charge distribution:                -64.05191455199152
  Core Hamiltonian energy:                                    -15.18637621214770
  Hartree energy:                                              17.00284100585320
  Exchange-correlation energy:                                 -2.93544777869147
  Hartree-Fock Exchange energy:                                -2.52484485465023

  GAPW| Exc from hard and soft atomic rho1:                    -5.15998734915870
  GAPW| local Eh = 1 center integrals:                         -6.88439032908522

  Total energy:                                               -79.74010013531343

 *******************************************************************************
 *   ___                                                                       *
 *  /   \                                                                      *
 * [ABORT]                                                                     *
 *  \___/     SCF run NOT converged. To continue the calculation regardless,   *
 *    |             please set the keyword IGNORE_CONVERGENCE_FAILURE.         *
 *  O/|                                                                        *
 * /| |                                                                        *
 * / \                                                            qs_scf.F:611 *
 *******************************************************************************


 ===== Routine Calling Stack ===== 

            3 scf_env_do_scf
            2 qs_energies
            1 CP2K

 *******************************************************************************
 *   ___                                                                       *
 *  /   \                                                                      *
 * [ABORT]                                                                     *
 *  \___/     SCF run NOT converged. To continue the calculation regardless,   *
 *    |             please set the keyword IGNORE_CONVERGENCE_FAILURE.         *
 *  O/|                                                                        *
 * /| |                                                                        *
 * / \                                                            qs_scf.F:611 *
 *******************************************************************************


 ===== Routine Calling Stack ===== 

            3 scf_env_do_scf
            2 qs_energies
            1 CP2K

 *******************************************************************************
 *   ___                                                                       *
 *  /   \                                                                      *
 * [ABORT]                                                                     *
 *  \___/     SCF run NOT converged. To continue the calculation regardless,   *
 *    |             please set the keyword IGNORE_CONVERGENCE_FAILURE.         *
 *  O/|                                                                        *
 * /| |                                                                        *
 * / \                                                            qs_scf.F:611 *
 *******************************************************************************


 ===== Routine Calling Stack ===== 

            3 scf_env_do_scf
            2 qs_energies
            1 CP2K

 *******************************************************************************
 *   ___                                                                       *
 *  /   \                                                                      *
 * [ABORT]                                                                     *
 *  \___/     SCF run NOT converged. To continue the calculation regardless,   *
 *    |             please set the keyword IGNORE_CONVERGENCE_FAILURE.         *
 *  O/|                                                                        *
 * /| |                                                                        *
 * / \                                                            qs_scf.F:611 *
 *******************************************************************************


 ===== Routine Calling Stack ===== 

            3 scf_env_do_scf
            2 qs_energies
            1 CP2K

 *******************************************************************************
 *   ___                                                                       *
 *  /   \                                                                      *
 * [ABORT]                                                                     *
 *  \___/     SCF run NOT converged. To continue the calculation regardless,   *
 *    |             please set the keyword IGNORE_CONVERGENCE_FAILURE.         *
 *  O/|                                                                        *
 * /| |                                                                        *
 * / \                                                            qs_scf.F:611 *
 *******************************************************************************


 ===== Routine Calling Stack ===== 

            3 scf_env_do_scf
            2 qs_energies
            1 CP2K

 *******************************************************************************
 *   ___                                                                       *
 *  /   \                                                                      *
 * [ABORT]                                                                     *
 *  \___/     SCF run NOT converged. To continue the calculation regardless,   *
 *    |             please set the keyword IGNORE_CONVERGENCE_FAILURE.         *
 *  O/|                                                                        *
 * /| |                                                                        *
 * / \                                                            qs_scf.F:611 *
 *******************************************************************************


 ===== Routine Calling Stack ===== 

            3 scf_env_do_scf
            2 qs_energies
            1 CP2K

 *******************************************************************************
 *   ___                                                                       *
 *  /   \                                                                      *
 * [ABORT]                                                                     *
 *  \___/     SCF run NOT converged. To continue the calculation regardless,   *
 *    |             please set the keyword IGNORE_CONVERGENCE_FAILURE.         *
 *  O/|                                                                        *
 * /| |                                                                        *
 * / \                                                            qs_scf.F:611 *
 *******************************************************************************


 ===== Routine Calling Stack ===== 

            3 scf_env_do_scf
            2 qs_energies
            1 CP2K

 *******************************************************************************
 *   ___                                                                       *
 *  /   \                                                                      *
 * [ABORT]                                                                     *
 *  \___/     SCF run NOT converged. To continue the calculation regardless,   *
 *    |             please set the keyword IGNORE_CONVERGENCE_FAILURE.         *
 *  O/|                                                                        *
 * /| |                                                                        *
 * / \                                                            qs_scf.F:611 *
 *******************************************************************************


 ===== Routine Calling Stack ===== 

            3 scf_env_do_scf
            2 qs_energies
            1 CP2K

 *******************************************************************************
 *   ___                                                                       *
 *  /   \                                                                      *
 * [ABORT]                                                                     *
 *  \___/     SCF run NOT converged. To continue the calculation regardless,   *
 *    |             please set the keyword IGNORE_CONVERGENCE_FAILURE.         *
 *  O/|                                                                        *
 * /| |                                                                        *
 * / \                                                            qs_scf.F:611 *
 *******************************************************************************


 ===== Routine Calling Stack ===== 

            3 scf_env_do_scf
            2 qs_energies
            1 CP2K

 *******************************************************************************
 *   ___                                                                       *
 *  /   \                                                                      *
 * [ABORT]                                                                     *
 *  \___/     SCF run NOT converged. To continue the calculation regardless,   *
 *    |             please set the keyword IGNORE_CONVERGENCE_FAILURE.         *
 *  O/|                                                                        *
 * /| |                                                                        *
 * / \                                                            qs_scf.F:611 *
 *******************************************************************************


 ===== Routine Calling Stack ===== 

            3 scf_env_do_scf
            2 qs_energies
            1 CP2K

 *******************************************************************************
 *   ___                                                                       *
 *  /   \                                                                      *
 * [ABORT]                                                                     *
 *  \___/     SCF run NOT converged. To continue the calculation regardless,   *
 *    |             please set the keyword IGNORE_CONVERGENCE_FAILURE.         *
 *  O/|                                                                        *
 * /| |                                                                        *
 * / \                                                            qs_scf.F:611 *
 *******************************************************************************


 ===== Routine Calling Stack ===== 

            3 scf_env_do_scf
            2 qs_energies
            1 CP2K

 *******************************************************************************
 *   ___                                                                       *
 *  /   \                                                                      *
 * [ABORT]                                                                     *
 *  \___/     SCF run NOT converged. To continue the calculation regardless,   *
 *    |             please set the keyword IGNORE_CONVERGENCE_FAILURE.         *
 *  O/|                                                                        *
 * /| |                                                                        *
 * / \                                                            qs_scf.F:611 *
 *******************************************************************************


 ===== Routine Calling Stack ===== 

            3 scf_env_do_scf
            2 qs_energies
            1 CP2K

 *******************************************************************************
 *   ___                                                                       *
 *  /   \                                                                      *
 * [ABORT]                                                                     *
 *  \___/     SCF run NOT converged. To continue the calculation regardless,   *
 *    |             please set the keyword IGNORE_CONVERGENCE_FAILURE.         *
 *  O/|                                                                        *
 * /| |                                                                        *
 * / \                                                            qs_scf.F:611 *
 *******************************************************************************


 ===== Routine Calling Stack ===== 

            3 scf_env_do_scf
            2 qs_energies
            1 CP2K
