 DBCSR| CPU Multiplication driver                                           BLAS (U)
 DBCSR| Multrec recursion limit                                              512 (U)
 DBCSR| Multiplication stack size                                           1000 (D)
 DBCSR| Maximum elements for images                                    UNLIMITED (U)
 DBCSR| Multiplicative factor virtual images                                   1 (U)
 DBCSR| Use multiplication densification                                       T (D)
 DBCSR| Multiplication size stacks                                             3 (U)
 DBCSR| Use memory pool for CPU allocation                                     F (U)
 DBCSR| Number of 3D layers                                               SINGLE (U)
 DBCSR| Use MPI memory allocation                                              F (U)
 DBCSR| Use RMA algorithm                                                      F (U)
 DBCSR| Use Communication thread                                               T (U)
 DBCSR| Communication thread load                                             75 (D)
 DBCSR| MPI: My process id                                                     0
 DBCSR| MPI: Number of processes                                              24
 DBCSR| OMP: Current number of threads                                         4
 DBCSR| OMP: Max number of threads                                             4
 DBCSR| Split modifier for TAS multiplication algorithm                  1.0E+00 (U)


  **** **** ******  **  PROGRAM STARTED AT               2025-03-03 08:05:38.947
 ***** ** ***  *** **   PROGRAM STARTED ON                          i01r05c06s02
 **    ****   ******    PROGRAM STARTED BY                               di38fab
 ***** **    ** ** **   PROGRAM PROCESS ID                               3714413
  **** **  *******  **  PROGRAM STARTED IN /hppfs/scratch/04/di38fab/05_MOL/W4-1
                                           1+ALK/bh/SZVSR

 CP2K| version string:                 CP2K version 2025.1 (Development Version)
 CP2K| source code revision number:                                  git:47877ba
 CP2K| cp2kflags: omp libint fftw3 libxc parallel scalapack max_contr=4         
 CP2K| is freely available from                            https://www.cp2k.org/
 CP2K| Program compiled at                          Thu Feb 20 16:00:34 CET 2025
 CP2K| Program compiled on                                               login04
 CP2K| Program compiled for                                        Supermuc-foss
 CP2K| Data directory path          /hppfs/work/pn36zo/di38fab/newcp2k/cp2k/data
 CP2K| Input file name                                                    GW.inp

 GLOBAL| Force Environment number                                              1
 GLOBAL| Basis set file name            /hppfs/scratch/04/di38fab/04_TMD/BASIS_A
 GLOBAL| Potential file name            /hppfs/work/pn36zo/di38fab/cp2k/data/ALL
 GLOBAL| MM Potential file name                                     MM_POTENTIAL
 GLOBAL| Coordinate file name                                      __STD_INPUT__
 GLOBAL| Method name                                                        CP2K
 GLOBAL| Project name                                                       MoS2
 GLOBAL| Run type                                                         ENERGY
 GLOBAL| FFT library                                                       FFTW3
 GLOBAL| Diagonalization library                                       ScaLAPACK
 GLOBAL| DGEMM library                                                      BLAS
 GLOBAL| Orthonormality check for eigenvectors                          DISABLED
 GLOBAL| Matrix multiplication library                                 ScaLAPACK
 GLOBAL| All-to-all communication in single precision                          F
 GLOBAL| FFTs using library dependent lengths                                  F
 GLOBAL| Grid backend                                                       AUTO
 GLOBAL| Global print level                                               MEDIUM
 GLOBAL| MPI I/O enabled                                                       T
 GLOBAL| Total number of message passing processes                            24
 GLOBAL| Number of threads for this process                                    4
 GLOBAL| This output is from process                                           0
 GLOBAL| OpenMP stack size per thread (OMP_STACKSIZE)                    default
 GLOBAL| CPU model name             Intel(R) Xeon(R) Platinum 8174 CPU @ 3.10GHz

 MEMORY| system memory details [Kb]
 MEMORY|                        rank 0           min           max       average
 MEMORY| MemTotal             98436660      98436660      98436660      98436660
 MEMORY| MemFree              83890368      83627008      83890368      83758688
 MEMORY| Buffers                     0             0             0             0
 MEMORY| Cached                2381784       2381784       2609420       2495602
 MEMORY| Slab                  1240676       1213856       1240676       1227266
 MEMORY| SReclaimable           282920        265164        282920        274042
 MEMORY| MemLikelyFree        86555072      86501592      86555072      86528332


 *** Fundamental physical constants (SI units) ***

 *** Literature: B. J. Mohr and B. N. Taylor,
 ***             CODATA recommended values of the fundamental physical
 ***             constants: 2006, Web Version 5.1
 ***             http://physics.nist.gov/constants

 Speed of light in vacuum [m/s]                             2.99792458000000E+08
 Magnetic constant or permeability of vacuum [N/A**2]       1.25663706143592E-06
 Electric constant or permittivity of vacuum [F/m]          8.85418781762039E-12
 Planck constant (h) [J*s]                                  6.62606896000000E-34
 Planck constant (h-bar) [J*s]                              1.05457162825177E-34
 Elementary charge [C]                                      1.60217648700000E-19
 Electron mass [kg]                                         9.10938215000000E-31
 Electron g factor [ ]                                     -2.00231930436220E+00
 Proton mass [kg]                                           1.67262163700000E-27
 Fine-structure constant                                    7.29735253760000E-03
 Rydberg constant [1/m]                                     1.09737315685270E+07
 Avogadro constant [1/mol]                                  6.02214179000000E+23
 Boltzmann constant [J/K]                                   1.38065040000000E-23
 Atomic mass unit [kg]                                      1.66053878200000E-27
 Bohr radius [m]                                            5.29177208590000E-11

 *** Conversion factors ***

 [u] -> [a.u.]                                              1.82288848426455E+03
 [Angstrom] -> [Bohr] = [a.u.]                              1.88972613288564E+00
 [a.u.] = [Bohr] -> [Angstrom]                              5.29177208590000E-01
 [a.u.] -> [s]                                              2.41888432650478E-17
 [a.u.] -> [fs]                                             2.41888432650478E-02
 [a.u.] -> [J]                                              4.35974393937059E-18
 [a.u.] -> [N]                                              8.23872205491840E-08
 [a.u.] -> [K]                                              3.15774647902944E+05
 [a.u.] -> [kJ/mol]                                         2.62549961709828E+03
 [a.u.] -> [kcal/mol]                                       6.27509468713739E+02
 [a.u.] -> [Pa]                                             2.94210107994716E+13
 [a.u.] -> [bar]                                            2.94210107994716E+08
 [a.u.] -> [atm]                                            2.90362800883016E+08
 [a.u.] -> [eV]                                             2.72113838565563E+01
 [a.u.] -> [Hz]                                             6.57968392072181E+15
 [a.u.] -> [1/cm] (wave numbers)                            2.19474631370540E+05
 [a.u./Bohr**2] -> [1/cm]                                   5.14048714338585E+03
 

 CELL_TOP| Volume [angstrom^3]:                                     27000.000000
 CELL_TOP| Vector a [angstrom    30.000     0.000     0.000   |a| =    30.000000
 CELL_TOP| Vector b [angstrom     0.000    30.000     0.000   |b| =    30.000000
 CELL_TOP| Vector c [angstrom     0.000     0.000    30.000   |c| =    30.000000
 CELL_TOP| Angle (b,c), alpha [degree]:                                90.000000
 CELL_TOP| Angle (a,c), beta  [degree]:                                90.000000
 CELL_TOP| Angle (a,b), gamma [degree]:                                90.000000
 CELL_TOP| Numerically orthorhombic:                                         YES
 CELL_TOP| Periodicity                                                      NONE

 GENERATE|  Preliminary Number of Bonds generated:                             0
 GENERATE|  Achieved consistency in connectivity generation.

 CELL| Volume [angstrom^3]:                                         27000.000000
 CELL| Vector a [angstrom]:      30.000     0.000     0.000   |a| =    30.000000
 CELL| Vector b [angstrom]:       0.000    30.000     0.000   |b| =    30.000000
 CELL| Vector c [angstrom]:       0.000     0.000    30.000   |c| =    30.000000
 CELL| Angle (b,c), alpha [degree]:                                    90.000000
 CELL| Angle (a,c), beta  [degree]:                                    90.000000
 CELL| Angle (a,b), gamma [degree]:                                    90.000000
 CELL| Numerically orthorhombic:                                             YES
 CELL| Periodicity                                                          NONE

 CELL_REF| Volume [angstrom^3]:                                     27000.000000
 CELL_REF| Vector a [angstrom    30.000     0.000     0.000   |a| =    30.000000
 CELL_REF| Vector b [angstrom     0.000    30.000     0.000   |b| =    30.000000
 CELL_REF| Vector c [angstrom     0.000     0.000    30.000   |c| =    30.000000
 CELL_REF| Angle (b,c), alpha [degree]:                                90.000000
 CELL_REF| Angle (a,c), beta  [degree]:                                90.000000
 CELL_REF| Angle (a,b), gamma [degree]:                                90.000000
 CELL_REF| Numerically orthorhombic:                                         YES
 CELL_REF| Periodicity                                                      NONE

 *******************************************************************************
 *******************************************************************************
 **                                                                           **
 **     #####                         ##              ##                      **
 **    ##   ##            ##          ##              ##                      **
 **   ##     ##                       ##            ######                    **
 **   ##     ##  ##   ##  ##   #####  ##  ##   ####   ##    #####    #####    **
 **   ##     ##  ##   ##  ##  ##      ## ##   ##      ##   ##   ##  ##   ##   **
 **   ##  ## ##  ##   ##  ##  ##      ####     ###    ##   ######   ######    **
 **    ##  ###   ##   ##  ##  ##      ## ##      ##   ##   ##       ##        **
 **     #######   #####   ##   #####  ##  ##  ####    ##    #####   ##        **
 **           ##                                                    ##        **
 **                                                                           **
 **                                                ... make the atoms dance   **
 **                                                                           **
 **            Copyright (C) by CP2K developers group (2000-2025)             **
 **                      J. Chem. Phys. 152, 194103 (2020)                    **
 **                                                                           **
 *******************************************************************************

 DFT| Spin restricted Kohn-Sham (RKS) calculation                            RKS
 DFT| Multiplicity                                                             1
 DFT| Number of spin states                                                    1
 DFT| Charge                                                                   0
 DFT| Self-interaction correction (SIC)                                       NO
 DFT| Cutoffs: density                                              1.000000E-10
 DFT|          gradient                                             1.000000E-10
 DFT|          tau                                                  1.000000E-10
 DFT|          cutoff_smoothing_range                               0.000000E+00
 DFT| XC density smoothing                                                  NONE
 DFT| XC derivatives                                                          PW

 FUNCTIONAL| PBE:
 FUNCTIONAL| J.P.Perdew, K.Burke, M.Ernzerhof, Phys. Rev. Letter, vol. 77, n 18,
 FUNCTIONAL|  pp. 3865-3868, (1996)sx=0.750sc=1.000{spin unpolarized}           


 QS| Method:                                                                GAPW
 QS| Density plane wave grid type                        NON-SPHERICAL FULLSPACE
 QS| Number of grid levels:                                                    4
 QS| Density cutoff [a.u.]:                                                250.0
 QS| Multi grid cutoff [a.u.]: 1) grid level                               250.0
 QS|                           2) grid level                                83.3
 QS|                           3) grid level                                27.8
 QS|                           4) grid level                                 9.3
 QS| Grid level progression factor:                                          3.0
 QS| Relative density cutoff [a.u.]:                                        50.0
 QS| Interaction thresholds: eps_pgf_orb:                                1.0E-12
 QS|                         eps_filter_matrix:                          0.0E+00
 QS|                         eps_core_charge:                            1.0E-14
 QS|                         eps_rho_gspace:                             1.0E-12
 QS|                         eps_rho_rspace:                             1.0E-12
 QS|                         eps_gvg_rspace:                             1.0E-06
 QS|                         eps_ppl:                                    1.0E-02
 QS|                         eps_ppnl:                                   1.0E-08
 QS| GAPW|      One center basis from orbital basis primitives
 QS| GAPW|                   eps_fit:                                    1.0E-04
 QS| GAPW|                   eps_iso:                                    1.0E-12
 QS| GAPW|                   eps_svd:                                    1.0E-08
 QS| GAPW|                   eps_cpc:                                    1.0E-12
 QS| GAPW|   atom-r-grid: quadrature:                                     GC_LOG
 QS| GAPW|      atom-s-grid:  max l :                                          4
 QS| GAPW|      max_l_rho0 :                                                   2
 QS| GAPW|      At least one kind is NOT PAW, i.e. it has only soft AO 
 QS| GAPW|      The NOT PAW atoms are treated fully GPW


 ATOMIC KIND INFORMATION

  1. Atomic kind: B                                     Number of atoms:       1

     Orbital Basis Set                                         aug-SZV-MOLOPT-ae

       Number of orbital shell sets:                                           2
       Number of orbital shells:                                               6
       Number of primitive Cartesian functions:                               13
       Number of Cartesian basis functions:                                   15
       Number of spherical basis functions:                                   14
       Norm type:                                                              2

       Normalised Cartesian orbitals:

                        Set   Shell   Orbital            Exponent    Coefficient

                          1       1    1s                0.109280       0.032606
                                                         0.155613       0.000000
                                                         0.238409       0.144712
                                                         0.548949       0.113742
                                                         1.426820      -0.031435
                                                         4.590809      -0.105038
                                                        23.194561      -0.099829

                          1       2    2s                0.109280      -0.049098
                                                         0.155613      -0.119813
                                                         0.238409      -0.025283
                                                         0.548949       0.056653
                                                         1.426820       0.132404
                                                         4.590809       0.000000
                                                        23.194561       0.000000

                          1       3    2px               0.109280       0.009109
                                                         0.155613       0.000000
                                                         0.238409       0.101125
                                                         0.548949       0.281559
                                                         1.426820       0.386539
                                                         4.590809       0.360915
                                                        23.194561       0.272788
                          1       3    2py               0.109280       0.009109
                                                         0.155613       0.000000
                                                         0.238409       0.101125
                                                         0.548949       0.281559
                                                         1.426820       0.386539
                                                         4.590809       0.360915
                                                        23.194561       0.272788
                          1       3    2pz               0.109280       0.009109
                                                         0.155613       0.000000
                                                         0.238409       0.101125
                                                         0.548949       0.281559
                                                         1.426820       0.386539
                                                         4.590809       0.360915
                                                        23.194561       0.272788

                          1       4    3px               0.109280       0.062233
                                                         0.155613       0.035668
                                                         0.238409       0.015304
                                                         0.548949      -0.003054
                                                         1.426820       0.021875
                                                         4.590809       0.000000
                                                        23.194561       0.000000
                          1       4    3py               0.109280       0.062233
                                                         0.155613       0.035668
                                                         0.238409       0.015304
                                                         0.548949      -0.003054
                                                         1.426820       0.021875
                                                         4.590809       0.000000
                                                        23.194561       0.000000
                          1       4    3pz               0.109280       0.062233
                                                         0.155613       0.035668
                                                         0.238409       0.015304
                                                         0.548949      -0.003054
                                                         1.426820       0.021875
                                                         4.590809       0.000000
                                                        23.194561       0.000000

                          1       5    3dx2              0.109280       0.000986
                                                         0.155613       0.002022
                                                         0.238409       0.109458
                                                         0.548949       0.095099
                                                         1.426820       0.028232
                                                         4.590809       0.000000
                                                        23.194561       0.000000
                          1       5    3dxy              0.109280       0.001708
                                                         0.155613       0.003503
                                                         0.238409       0.189586
                                                         0.548949       0.164717
                                                         1.426820       0.048900
                                                         4.590809       0.000000
                                                        23.194561       0.000000
                          1       5    3dxz              0.109280       0.001708
                                                         0.155613       0.003503
                                                         0.238409       0.189586
                                                         0.548949       0.164717
                                                         1.426820       0.048900
                                                         4.590809       0.000000
                                                        23.194561       0.000000
                          1       5    3dy2              0.109280       0.000986
                                                         0.155613       0.002022
                                                         0.238409       0.109458
                                                         0.548949       0.095099
                                                         1.426820       0.028232
                                                         4.590809       0.000000
                                                        23.194561       0.000000
                          1       5    3dyz              0.109280       0.001708
                                                         0.155613       0.003503
                                                         0.238409       0.189586
                                                         0.548949       0.164717
                                                         1.426820       0.048900
                                                         4.590809       0.000000
                                                        23.194561       0.000000
                          1       5    3dz2              0.109280       0.000986
                                                         0.155613       0.002022
                                                         0.238409       0.109458
                                                         0.548949       0.095099
                                                         1.426820       0.028232
                                                         4.590809       0.000000
                                                        23.194561       0.000000

                          2       1    1s              506.011837       0.696781
                                                        92.776716       1.051665
                                                        25.955582       1.381280
                                                         8.916443       1.362748
                                                         3.462516       0.753460
                                                         1.426055       0.121219

     RI Auxiliary Basis Set             RI_aug-SZV-MOLOPT-ae_N_RI_025_s_p_d_f_g_

       Number of orbital shell sets:                                           9
       Number of orbital shells:                                               9
       Number of primitive Cartesian functions:                                9
       Number of Cartesian basis functions:                                   29
       Number of spherical basis functions:                                   25
       Norm type:                                                              2

       Normalised Cartesian orbitals:

                        Set   Shell   Orbital            Exponent    Coefficient

                          1       1    1s                0.250341       0.252237

                          2       1    5px               0.273284       0.281648
                          2       1    5py               0.273284       0.281648
                          2       1    5pz               0.273284       0.281648

                          3       1    8dx2              0.455299       0.415363
                          3       1    8dxy              0.455299       0.719430
                          3       1    8dxz              0.455299       0.719430
                          3       1    8dy2              0.455299       0.415363
                          3       1    8dyz              0.455299       0.719430
                          3       1    8dz2              0.455299       0.415363

                          4       1    9fx3              0.675974       0.609953
                          4       1    9fx2y             0.675974       1.363897
                          4       1    9fx2z             0.675974       1.363897
                          4       1    9fxy2             0.675974       1.363897
                          4       1    9fxyz             0.675974       2.362339
                          4       1    9fxz2             0.675974       1.363897
                          4       1    9fy3              0.675974       0.609953
                          4       1    9fy2z             0.675974       1.363897
                          4       1    9fyz2             0.675974       1.363897
                          4       1    9fz3              0.675974       0.609953

                          5       1    6px               0.737183       0.973664
                          5       1    6py               0.737183       0.973664
                          5       1    6pz               0.737183       0.973664

                          6       1    2s                0.787813       0.595974

                          7       1    3s                5.974522       2.723563

                          8       1    7px               7.247300      16.949636
                          8       1    7py               7.247300      16.949636
                          8       1    7pz               7.247300      16.949636

                          9       1    4s               47.432595      12.881539

       Atomic covalent radius [Angstrom]:                                  0.820

       Atomic van der Waals radius [Angstrom]:                             1.920

     The atoms of this atomic kind are PAW atoms (GAPW):
       Hard Gaussian function radius:                                      1.512
       Rho0 radius:                                                        1.512
       Maximum GTO radius used for PAW projector construction:            24.566

     GAPW Soft Basis Set                                  aug-SZV-MOLOPT-ae_soft

       Number of orbital shell sets:                                           2
       Number of orbital shells:                                               6
       Number of primitive Cartesian functions:                                7
       Number of Cartesian basis functions:                                   15
       Number of spherical basis functions:                                   14
       Norm type:                                                              2

       Normalised Cartesian orbitals:

                        Set   Shell   Orbital            Exponent    Coefficient

                          1       1    1s                0.109280       0.032606
                                                         0.155613       0.000000
                                                         0.238409       0.144712
                                                         0.548949       0.113742
                                                         1.426820      -0.031435

                          1       2    2s                0.109280      -0.049098
                                                         0.155613      -0.119813
                                                         0.238409      -0.025283
                                                         0.548949       0.056653
                                                         1.426820       0.132404

                          1       3    2px               0.109280       0.009109
                                                         0.155613       0.000000
                                                         0.238409       0.101125
                                                         0.548949       0.281559
                                                         1.426820       0.386539
                          1       3    2py               0.109280       0.009109
                                                         0.155613       0.000000
                                                         0.238409       0.101125
                                                         0.548949       0.281559
                                                         1.426820       0.386539
                          1       3    2pz               0.109280       0.009109
                                                         0.155613       0.000000
                                                         0.238409       0.101125
                                                         0.548949       0.281559
                                                         1.426820       0.386539

                          1       4    3px               0.109280       0.062233
                                                         0.155613       0.035668
                                                         0.238409       0.015304
                                                         0.548949      -0.003054
                                                         1.426820       0.021875
                          1       4    3py               0.109280       0.062233
                                                         0.155613       0.035668
                                                         0.238409       0.015304
                                                         0.548949      -0.003054
                                                         1.426820       0.021875
                          1       4    3pz               0.109280       0.062233
                                                         0.155613       0.035668
                                                         0.238409       0.015304
                                                         0.548949      -0.003054
                                                         1.426820       0.021875

                          1       5    3dx2              0.109280       0.000986
                                                         0.155613       0.002022
                                                         0.238409       0.109458
                                                         0.548949       0.095099
                                                         1.426820       0.028232
                          1       5    3dxy              0.109280       0.001708
                                                         0.155613       0.003503
                                                         0.238409       0.189586
                                                         0.548949       0.164717
                                                         1.426820       0.048900
                          1       5    3dxz              0.109280       0.001708
                                                         0.155613       0.003503
                                                         0.238409       0.189586
                                                         0.548949       0.164717
                                                         1.426820       0.048900
                          1       5    3dy2              0.109280       0.000986
                                                         0.155613       0.002022
                                                         0.238409       0.109458
                                                         0.548949       0.095099
                                                         1.426820       0.028232
                          1       5    3dyz              0.109280       0.001708
                                                         0.155613       0.003503
                                                         0.238409       0.189586
                                                         0.548949       0.164717
                                                         1.426820       0.048900
                          1       5    3dz2              0.109280       0.000986
                                                         0.155613       0.002022
                                                         0.238409       0.109458
                                                         0.548949       0.095099
                                                         1.426820       0.028232

                          2       1    1s                3.462516       0.753460
                                                         1.426055       0.121219

     AE Potential information for                                            ALL

       Description:                                       All-electron potential
                                          Krack, Parrinello, PCCP 2, 2105 (2000)

       Gaussian exponent of the core charge distribution:               2.655410
       Electronic configuration (s p d ...):                           4   1   0

  2. Atomic kind: H                                     Number of atoms:       1

     Orbital Basis Set                                      aug-SZV-MOLOPT-ae-SR

       Number of orbital shell sets:                                           1
       Number of orbital shells:                                               4
       Number of primitive Cartesian functions:                                4
       Number of Cartesian basis functions:                                    6
       Number of spherical basis functions:                                    6
       Norm type:                                                              2

       Normalised Cartesian orbitals:

                        Set   Shell   Orbital            Exponent    Coefficient

                          1       1    2s                0.065428       0.000000
                                                         0.168855       0.083474
                                                         0.623914       0.267839
                                                         3.425251       0.276934

                          1       2    3s                0.065428      -0.066952
                                                         0.168855       0.261968
                                                         0.623914       0.081548
                                                         3.425251      -0.022414

                          1       3    4s                0.065428       0.165615
                                                         0.168855      -0.226449
                                                         0.623914      -0.005802
                                                         3.425251       0.005451

                          1       4    3px               0.065428       0.053063
                                                         0.168855      -0.030502
                                                         0.623914       0.062721
                                                         3.425251       0.019012
                          1       4    3py               0.065428       0.053063
                                                         0.168855      -0.030502
                                                         0.623914       0.062721
                                                         3.425251       0.019012
                          1       4    3pz               0.065428       0.053063
                                                         0.168855      -0.030502
                                                         0.623914       0.062721
                                                         3.425251       0.019012

     RI Auxiliary Basis Set             RI_aug-SZV-MOLOPT-ae-SR_N_RI_006_s_p_d_f

       Number of orbital shell sets:                                           4
       Number of orbital shells:                                               4
       Number of primitive Cartesian functions:                                4
       Number of Cartesian basis functions:                                    6
       Number of spherical basis functions:                                    6
       Norm type:                                                              2

       Normalised Cartesian orbitals:

                        Set   Shell   Orbital            Exponent    Coefficient

                          1       1    1s                0.310545       0.296485

                          2       1    4px               0.543207       0.664733
                          2       1    4py               0.543207       0.664733
                          2       1    4pz               0.543207       0.664733

                          3       1    2s                0.965126       0.693982

                          4       1    3s                3.094977       1.663042

       Atomic covalent radius [Angstrom]:                                  0.320

       Atomic van der Waals radius [Angstrom]:                             1.090

     AE Potential information for                                            ALL

       Description:                                       All-electron potential
                                          Krack, Parrinello, PCCP 2, 2105 (2000)

       Gaussian exponent of the core charge distribution:              12.500000
       Electronic configuration (s p d ...):                           1   0   0


 MOLECULE KIND INFORMATION


 All atoms are their own molecule, skipping detailed information


 TOTAL NUMBERS AND MAXIMUM NUMBERS

  Total number of            - Atomic kinds:                                   2
                             - Atoms:                                          2
                             - Shell sets:                                     3
                             - Shells:                                        10
                             - Primitive Cartesian functions:                 17
                             - Cartesian basis functions:                     21
                             - Spherical basis functions:                     20

  Maximum angular momentum of the orbital basis functions:                     2


 MODULE QUICKSTEP: ATOMIC COORDINATES IN ANGSTROM

   Atom Kind Element         X             Y             Z       Z(eff)     Mass
      1    1 B     5     15.616628     15.000000     15.000000   5.0000  10.8110
      2    2 H     1     14.383372     15.000000     15.000000   1.0000   1.0079



 SCF PARAMETERS         Density guess:                                    ATOMIC
                        --------------------------------------------------------
                        max_scf:                                             500
                        max_scf_history:                                       0
                        max_diis:                                              4
                        --------------------------------------------------------
                        eps_scf:                                        1.00E-06
                        eps_scf_history:                                0.00E+00
                        eps_diis:                                       1.00E-01
                        eps_eigval:                                     1.00E-05
                        --------------------------------------------------------
                        level_shift [a.u.]:                             0.000000
                        added MOs                                        17    0
                        --------------------------------------------------------
                        Mixing method:                            BROYDEN_MIXING
                                                charge density mixing in g-space
                        --------------------------------------------------------
                        No outer SCF

 PW_GRID| Information for grid number                                          1
 PW_GRID| Grid distributed over                                    24 processors
 PW_GRID| Real space group dimensions                                    24    1
 PW_GRID| the grid is blocked:                                                NO
 PW_GRID| Cutoff [a.u.]                                                    250.0
 PW_GRID| spherical cutoff:                                                   NO
 PW_GRID|   Bounds   1           -202     202                Points:         405
 PW_GRID|   Bounds   2           -202     202                Points:         405
 PW_GRID|   Bounds   3           -202     202                Points:         405
 PW_GRID| Volume element (a.u.^3)  0.2743E-02     Volume (a.u.^3)    182205.0337
 PW_GRID| Grid span                                                    FULLSPACE
 PW_GRID|   Distribution                         Average         Max         Min
 PW_GRID|   G-Vectors                          2767921.9     2768175     2767770
 PW_GRID|   G-Rays                                6834.4        6835        6834
 PW_GRID|   Real Space Points                  2767921.9     2788425     2624400

 PW_GRID| Information for grid number                                          2
 PW_GRID| Number of the reference grid                                         1
 PW_GRID| Grid distributed over                                    24 processors
 PW_GRID| Real space group dimensions                                    24    1
 PW_GRID| the grid is blocked:                                                NO
 PW_GRID| Cutoff [a.u.]                                                     83.3
 PW_GRID| spherical cutoff:                                                   NO
 PW_GRID|   Bounds   1           -120     119                Points:         240
 PW_GRID|   Bounds   2           -120     119                Points:         240
 PW_GRID|   Bounds   3           -120     119                Points:         240
 PW_GRID| Volume element (a.u.^3)  0.1318E-01     Volume (a.u.^3)    182205.0337
 PW_GRID| Grid span                                                    FULLSPACE
 PW_GRID|   Distribution                         Average         Max         Min
 PW_GRID|   G-Vectors                           576000.0      576240      575760
 PW_GRID|   G-Rays                                2400.0        2401        2399
 PW_GRID|   Real Space Points                   576000.0      576000      576000

 PW_GRID| Information for grid number                                          3
 PW_GRID| Number of the reference grid                                         1
 PW_GRID| Grid distributed over                                    24 processors
 PW_GRID| Real space group dimensions                                    24    1
 PW_GRID| the grid is blocked:                                                NO
 PW_GRID| Cutoff [a.u.]                                                     27.8
 PW_GRID| spherical cutoff:                                                   NO
 PW_GRID|   Bounds   1            -67      67                Points:         135
 PW_GRID|   Bounds   2            -67      67                Points:         135
 PW_GRID|   Bounds   3            -67      67                Points:         135
 PW_GRID| Volume element (a.u.^3)  0.7406E-01     Volume (a.u.^3)    182205.0337
 PW_GRID| Grid span                                                    FULLSPACE
 PW_GRID|   Distribution                         Average         Max         Min
 PW_GRID|   G-Vectors                           102515.6      102735      102330
 PW_GRID|   G-Rays                                 759.4         761         758
 PW_GRID|   Real Space Points                   102515.6      109350       91125

 PW_GRID| Information for grid number                                          4
 PW_GRID| Number of the reference grid                                         1
 PW_GRID| Grid distributed over                                    24 processors
 PW_GRID| Real space group dimensions                                    24    1
 PW_GRID| the grid is blocked:                                                NO
 PW_GRID| Cutoff [a.u.]                                                      9.3
 PW_GRID| spherical cutoff:                                                   NO
 PW_GRID|   Bounds   1            -40      39                Points:          80
 PW_GRID|   Bounds   2            -40      39                Points:          80
 PW_GRID|   Bounds   3            -40      39                Points:          80
 PW_GRID| Volume element (a.u.^3)  0.3559         Volume (a.u.^3)    182205.0337
 PW_GRID| Grid span                                                    FULLSPACE
 PW_GRID|   Distribution                         Average         Max         Min
 PW_GRID|   G-Vectors                            21333.3       21360       21280
 PW_GRID|   G-Rays                                 266.7         267         266
 PW_GRID|   Real Space Points                    21333.3       25600       19200

 POISSON| Solver                                                         WAVELET
 POISSON| Wavelet| Scaling function                                           40
 POISSON| Periodicity                                                       NONE

 RS_GRID| Information for grid number                                          1
 RS_GRID|   Bounds   1           -202     202                Points:         405
 RS_GRID|   Bounds   2           -202     202                Points:         405
 RS_GRID|   Bounds   3           -202     202                Points:         405
 RS_GRID| Real space distribution over                                  4 groups
 RS_GRID| Real space distribution along direction                              2
 RS_GRID| Border size                                                         32
 RS_GRID| Real space distribution over                                  6 groups
 RS_GRID| Real space distribution along direction                              3
 RS_GRID| Border size                                                         32
 RS_GRID|   Distribution                         Average         Max         Min
 RS_GRID|   Planes                                 165.2         166         165
 RS_GRID|   Distribution                         Average         Max         Min
 RS_GRID|   Planes                                 131.5         132         131

 RS_GRID| Information for grid number                                          2
 RS_GRID|   Bounds   1           -120     119                Points:         240
 RS_GRID|   Bounds   2           -120     119                Points:         240
 RS_GRID|   Bounds   3           -120     119                Points:         240
 RS_GRID| Real space distribution over                                  4 groups
 RS_GRID| Real space distribution along direction                              2
 RS_GRID| Border size                                                         35
 RS_GRID| Real space distribution over                                  6 groups
 RS_GRID| Real space distribution along direction                              3
 RS_GRID| Border size                                                         35
 RS_GRID|   Distribution                         Average         Max         Min
 RS_GRID|   Planes                                 130.0         130         130
 RS_GRID|   Distribution                         Average         Max         Min
 RS_GRID|   Planes                                 110.0         110         110

 RS_GRID| Information for grid number                                          3
 RS_GRID|   Bounds   1            -67      67                Points:         135
 RS_GRID|   Bounds   2            -67      67                Points:         135
 RS_GRID|   Bounds   3            -67      67                Points:         135
 RS_GRID| Real space fully replicated
 RS_GRID| Group size                                                           1

 RS_GRID| Information for grid number                                          4
 RS_GRID|   Bounds   1            -40      39                Points:          80
 RS_GRID|   Bounds   2            -40      39                Points:          80
 RS_GRID|   Bounds   3            -40      39                Points:          80
 RS_GRID| Real space fully replicated
 RS_GRID| Group size                                                           1

  HFX_INFO| Replica ID:                                                        1
  HFX_INFO| FRACTION:                                               0.2500000000
  HFX_INFO| Interaction Potential:                                       COULOMB
  HFX_INFO| EPS_SCHWARZ:                                                 1.0E-10
  HFX_INFO| EPS_SCHWARZ_FORCES                                           1.0E-08
  HFX_INFO| EPS_STORAGE_SCALING:                                         1.0E+00
  HFX_INFO| NBINS:                                                            64
  HFX_INFO| BLOCK_SIZE:                                                        1
  HFX_INFO| Number of periodic shells considered:                           NONE
  HFX_INFO| Number of periodic cells considered:                            NONE

 
 RI-RPA| using GPW style
 

 OVERLAP MATRIX CONDITION NUMBER
 1-Norm Condition Number (Estimate)
   CN : |A|*|A^-1|:  4.799E+000 *  8.071E+001   = 3.873E+002  Log(1-CN):  2.5881
 1-Norm and 2-Norm Condition Numbers using Diagonalization
   CN : |A|*|A^-1|:  4.799E+000 *  8.071E+001   = 3.873E+002  Log(1-CN):  2.5881
   CN : max/min ev:  3.447E+000 /  1.887E-002   = 1.827E+002  Log(2-CN):  2.2617

 Number of electrons:                                                          6
 Number of occupied orbitals:                                                  3
 Number of molecular orbitals:                                                20

 Number of orbital functions:                                                 20
 Number of independent orbital functions:                                     20

 Extrapolation method: initial_guess

 Atomic guess: The first density matrix is obtained in terms of atomic orbitals
               and electronic configurations assigned to each atomic kind

 Guess for atomic kind: B

 Electronic structure
    Total number of core electrons                                          0.00
    Total number of valence electrons                                       5.00
    Total number of electrons                                               5.00
    Multiplicity                                                   not specified
    S      2.00  2.00
    P      1.00


 *******************************************************************************
                  Iteration          Convergence                     Energy [au]
 *******************************************************************************
                          1        0.612489E-01                 -24.304439508901
                          2        0.220484E-01                 -24.305945213911
                          3        0.367076E-03                 -24.306247196960
                          4        0.456899E-05                 -24.306247340970
                          5        0.241868E-07                 -24.306247340986

 Energy components [Hartree]           Total Energy ::          -24.306247340986
                                        Band Energy ::          -13.825803348850
                                     Kinetic Energy ::           23.970530113188
                                   Potential Energy ::          -48.276777454174
                                      Virial (-V/T) ::            2.014005415242
                                        Core Energy ::          -32.361048727638
                                          XC Energy ::           -3.546375173816
                                     Coulomb Energy ::           11.601176560468

 Orbital energies  State     L     Occupation   Energy[a.u.]          Energy[eV]

                       1     0          2.000      -6.531739         -177.737651
                       2     0          2.000      -0.324835           -8.839199

                       1     1          1.000      -0.112657           -3.065543


 Total Electron Density at R=0:                                        58.671969

 Guess for atomic kind: H

 Electronic structure
    Total number of core electrons                                          0.00
    Total number of valence electrons                                       1.00
    Total number of electrons                                               1.00
    Multiplicity                                                   not specified
    S      1.00


 *******************************************************************************
                  Iteration          Convergence                     Energy [au]
 *******************************************************************************
                          1        0.105001E-01                  -0.442912571909
                          2        0.809393E-03                  -0.443000038014
                          3        0.126045E-03                  -0.443002205783
                          4        0.926691E-07                  -0.443002227638

 Energy components [Hartree]           Total Energy ::           -0.443002227638
                                        Band Energy ::           -0.231242105371
                                     Kinetic Energy ::            0.416655567325
                                   Potential Energy ::           -0.859657794963
                                      Virial (-V/T) ::            2.063233669195
                                        Core Energy ::           -0.493343888102
                                          XC Energy ::           -0.231659799565
                                     Coulomb Energy ::            0.282001460029

 Orbital energies  State     L     Occupation   Energy[a.u.]          Energy[eV]

                       1     0          1.000      -0.231242           -6.292418


 Total Electron Density at R=0:                                         0.184980
 Re-scaling the density matrix to get the right number of electrons
                  # Electrons              Trace(P)               Scaling factor
                            6                 6.000                        1.000


 SCF WAVEFUNCTION OPTIMIZATION

  Step     Update method      Time    Convergence         Total energy    Change
  ------------------------------------------------------------------------------

  HFX_MEM_INFO| Est. max. program size before HFX [MiB]:                    2178
  HFX_MEM_INFO| Number of cart. primitive ERI's calculated:             43704780
  HFX_MEM_INFO| Number of sph. ERI's calculated:                           73312
  HFX_MEM_INFO| Number of sph. ERI's stored in-core:                       73312
  HFX_MEM_INFO| Number of sph. ERI's stored on disk:                           0
  HFX_MEM_INFO| Number of sph. ERI's calculated on the fly:                    0
  HFX_MEM_INFO| Total memory consumption ERI's RAM [MiB]:                      1
  HFX_MEM_INFO| Whereof max-vals [MiB]:                                        1
  HFX_MEM_INFO| Total compression factor ERI's RAM:                         0.57
  HFX_MEM_INFO| Total memory consumption ERI's disk [MiB]:                     0
  HFX_MEM_INFO| Total compression factor ERI's disk:                        0.00
  HFX_MEM_INFO| Size of density/Fock matrix [MiB]:                             0
  HFX_MEM_INFO| Size of buffers [MiB]:                                         0
  HFX_MEM_INFO| Est. max. program size after HFX  [MiB]:                    2691

     1 NoMix/Diag. 0.10E+00    8.2     0.48627715       -25.1373355741 -2.51E+01
     2 Broy./Diag. 0.10E+00    4.7     0.06983886       -24.9976592699  1.40E-01
     3 Broy./Diag. 0.10E+00    4.9     0.10014014       -24.7573029836  2.40E-01
     4 Broy./Diag. 0.10E+00    4.8     0.18661656       -25.0517070029 -2.94E-01
     5 Broy./Diag. 0.10E+00    4.9     0.03467022       -25.1128193628 -6.11E-02
     6 Broy./Diag. 0.10E+00    4.9     0.00727640       -25.1066869272  6.13E-03
     7 Broy./Diag. 0.10E+00    5.0     0.02687707       -25.1373925953 -3.07E-02
     8 Broy./Diag. 0.10E+00    5.1     0.01270695       -25.1697314428 -3.23E-02
     9 Broy./Diag. 0.10E+00    5.2     0.00604148       -25.1845820690 -1.49E-02
    10 Broy./Diag. 0.10E+00    5.3     0.01505292       -25.2080760108 -2.35E-02
    11 Broy./Diag. 0.10E+00    5.2     0.00330666       -25.2173200224 -9.24E-03
    12 Broy./Diag. 0.10E+00    5.3     0.00178759       -25.2150385763  2.28E-03
    13 Broy./Diag. 0.10E+00    5.4     0.00242420       -25.2094160310  5.62E-03
    14 Broy./Diag. 0.10E+00    5.3     0.00071825       -25.2105674366 -1.15E-03
    15 Broy./Diag. 0.10E+00    5.3     0.00102600       -25.2118796593 -1.31E-03
    16 Broy./Diag. 0.10E+00    5.4     0.00085300       -25.2104769537  1.40E-03
    17 Broy./Diag. 0.10E+00    5.3     0.00040048       -25.2107293525 -2.52E-04
    18 Broy./Diag. 0.10E+00    5.3     0.00071542       -25.2113588123 -6.29E-04
    19 Broy./Diag. 0.10E+00    5.3     0.00040549       -25.2112466610  1.12E-04
    20 Broy./Diag. 0.10E+00    5.3     0.00014384       -25.2113226295 -7.60E-05
    21 Broy./Diag. 0.10E+00    5.3     0.00046735       -25.2110819775  2.41E-04
    22 Broy./Diag. 0.10E+00    5.3     0.00032086       -25.2108286829  2.53E-04
    23 Broy./Diag. 0.10E+00    5.3     0.00005837       -25.2108943965 -6.57E-05
    24 Broy./Diag. 0.10E+00    5.3     0.00012525       -25.2107790414  1.15E-04
    25 Broy./Diag. 0.10E+00    5.4     0.00010861       -25.2105432120  2.36E-04
    26 Broy./Diag. 0.10E+00    5.3     0.00004127       -25.2104828946  6.03E-05
    27 Broy./Diag. 0.10E+00    5.4     0.00011277       -25.2102829123  2.00E-04
    28 Broy./Diag. 0.10E+00    5.3     0.00001546       -25.2101859075  9.70E-05
    29 Broy./Diag. 0.10E+00    5.3     0.00004029       -25.2101762558  9.65E-06
    30 Broy./Diag. 0.10E+00    5.3     0.00000883       -25.2102017798 -2.55E-05
    31 Broy./Diag. 0.10E+00    5.3     0.00003519       -25.2102739589 -7.22E-05
    32 Broy./Diag. 0.10E+00    5.4     0.00002073       -25.2103271252 -5.32E-05
    33 Broy./Diag. 0.10E+00    5.4     0.00003215       -25.2103474001 -2.03E-05
    34 Broy./Diag. 0.10E+00    5.3     0.00001329       -25.2103466911  7.09E-07
    35 Broy./Diag. 0.10E+00    5.3     0.00001558       -25.2103301470  1.65E-05
    36 Broy./Diag. 0.10E+00    5.3     0.00000486       -25.2103224920  7.66E-06
    37 Broy./Diag. 0.10E+00    5.4     0.00000879       -25.2103059854  1.65E-05
    38 Broy./Diag. 0.10E+00    5.3     0.00000630       -25.2102820570  2.39E-05
    39 Broy./Diag. 0.10E+00    5.3     0.00000836       -25.2102585513  2.35E-05
    40 Broy./Diag. 0.10E+00    5.3     0.00000224       -25.2102469359  1.16E-05
    41 Broy./Diag. 0.10E+00    5.3     0.00000100       -25.2102454713  1.46E-06

  *** SCF run converged in    41 steps ***


  Electronic density on regular grids:         -4.5668856817        1.4331143183
  Core density on regular grids:                1.0000000000       -5.0000000000
  Hard and soft densities (Lebedev):           -6.2710342914       -4.8379194391
  Total Rho_soft + Rho1_hard - Rho1_soft       -6.0000005340
  Total charge density (r-space):              -5.0000005340
  Total Rho_soft + Rho0_soft (g-space):        -0.0000005409

  Overlap energy of the core charge distribution:               0.00000230416181
  Self energy of the core charge distribution:                -17.66281176767632
  Core Hamiltonian energy:                                     -6.23322745962580
  Hartree energy:                                               9.04021392096657
  Exchange-correlation energy:                                 -1.26898082610708
  Hartree-Fock Exchange energy:                                -1.02883393501727

  GAPW| Exc from hard and soft atomic rho1:                    -1.93521936166845
  GAPW| local Eh = 1 center integrals:                         -6.12138834637329

  Total energy:                                               -25.21024547133982

 !-----------------------------------------------------------------------------!
                     Mulliken Population Analysis

 #  Atom  Element  Kind  Atomic population                           Net charge
       1     B        1          5.069345                             -0.069345
       2     H        2          0.930655                              0.069345
 # Total charge                              6.000000                 -0.000000

 !-----------------------------------------------------------------------------!

 !-----------------------------------------------------------------------------!
                           Hirshfeld Charges

  #Atom  Element  Kind  Ref Charge     Population                    Net charge
      1       B      1       5.000          5.416                        -0.416
      2       H      2       1.000          0.575                         0.425

  Total Charge                                                            0.009
 !-----------------------------------------------------------------------------!


 RI-RPA section
 --------------

  Used number of processes per group:                                          1
  Maximum allowed memory usage per MPI process:                      1024.00 MiB
  RI_INFO| Cholesky decomposition group size:                                  2
  RI_INFO| Number of groups for auxiliary basis functions                     24

  RI_INFO| RI metric:                                                    COULOMB
  RI_INFO| Number of auxiliary basis functions:                               31
  GENERAL_INFO| Number of basis functions:                                    20
  GENERAL_INFO| Number of occupied orbitals:                                   3
  GENERAL_INFO| Number of virtual orbitals:                                   17
  RI_INFO| Total memory for (ia|K) integrals:                           0.01 MiB
  RI_INFO| Total memory for G0W0-(nm|K) integrals:                      0.09 MiB
  RI_INFO| Total memory for (ij|K) integrals:                           0.00 MiB
  RI_INFO| Total memory for (ab|K) integrals:                           0.07 MiB
  RI_INFO| Group size for frequency integration:                              24
  INTEG_INFO| Clenshaw-Curtius quadrature
  INTEG_INFO| Number of integration points:                                  100
  INTEG_INFO| Number of integration points per RPA group:                    100
  MATRIX_INFO| Number row processes:                                           6
  MATRIX_INFO| Number column processes:                                        4
  MATRIX_INFO| Row block size:                                                 2
  MATRIX_INFO| Column block size:                                              6
  INTEG_INFO| Scaling parameter:                                         0.20000
  INTEG_INFO| Started with Integration point   1 of 100
  INTEG_INFO| Started with Integration point   2 of 100
  INTEG_INFO| Started with Integration point   3 of 100
  INTEG_INFO| Started with Integration point   4 of 100
  INTEG_INFO| Started with Integration point   5 of 100
  INTEG_INFO| Started with Integration point   6 of 100
  INTEG_INFO| Started with Integration point   7 of 100
  INTEG_INFO| Started with Integration point   8 of 100
  INTEG_INFO| Started with Integration point   9 of 100
  INTEG_INFO| Started with Integration point  10 of 100
  INTEG_INFO| Started with Integration point  11 of 100
  INTEG_INFO| Started with Integration point  12 of 100
  INTEG_INFO| Started with Integration point  13 of 100
  INTEG_INFO| Started with Integration point  14 of 100
  INTEG_INFO| Started with Integration point  15 of 100
  INTEG_INFO| Started with Integration point  16 of 100
  INTEG_INFO| Started with Integration point  17 of 100
  INTEG_INFO| Started with Integration point  18 of 100
  INTEG_INFO| Started with Integration point  19 of 100
  INTEG_INFO| Started with Integration point  20 of 100
  INTEG_INFO| Started with Integration point  21 of 100
  INTEG_INFO| Started with Integration point  22 of 100
  INTEG_INFO| Started with Integration point  23 of 100
  INTEG_INFO| Started with Integration point  24 of 100
  INTEG_INFO| Started with Integration point  25 of 100
  INTEG_INFO| Started with Integration point  26 of 100
  INTEG_INFO| Started with Integration point  27 of 100
  INTEG_INFO| Started with Integration point  28 of 100
  INTEG_INFO| Started with Integration point  29 of 100
  INTEG_INFO| Started with Integration point  30 of 100
  INTEG_INFO| Started with Integration point  31 of 100
  INTEG_INFO| Started with Integration point  32 of 100
  INTEG_INFO| Started with Integration point  33 of 100
  INTEG_INFO| Started with Integration point  34 of 100
  INTEG_INFO| Started with Integration point  35 of 100
  INTEG_INFO| Started with Integration point  36 of 100
  INTEG_INFO| Started with Integration point  37 of 100
  INTEG_INFO| Started with Integration point  38 of 100
  INTEG_INFO| Started with Integration point  39 of 100
  INTEG_INFO| Started with Integration point  40 of 100
  INTEG_INFO| Started with Integration point  41 of 100
  INTEG_INFO| Started with Integration point  42 of 100
  INTEG_INFO| Started with Integration point  43 of 100
  INTEG_INFO| Started with Integration point  44 of 100
  INTEG_INFO| Started with Integration point  45 of 100
  INTEG_INFO| Started with Integration point  46 of 100
  INTEG_INFO| Started with Integration point  47 of 100
  INTEG_INFO| Started with Integration point  48 of 100
  INTEG_INFO| Started with Integration point  49 of 100
  INTEG_INFO| Started with Integration point  50 of 100
  INTEG_INFO| Started with Integration point  51 of 100
  INTEG_INFO| Started with Integration point  52 of 100
  INTEG_INFO| Started with Integration point  53 of 100
  INTEG_INFO| Started with Integration point  54 of 100
  INTEG_INFO| Started with Integration point  55 of 100
  INTEG_INFO| Started with Integration point  56 of 100
  INTEG_INFO| Started with Integration point  57 of 100
  INTEG_INFO| Started with Integration point  58 of 100
  INTEG_INFO| Started with Integration point  59 of 100
  INTEG_INFO| Started with Integration point  60 of 100
  INTEG_INFO| Started with Integration point  61 of 100
  INTEG_INFO| Started with Integration point  62 of 100
  INTEG_INFO| Started with Integration point  63 of 100
  INTEG_INFO| Started with Integration point  64 of 100
  INTEG_INFO| Started with Integration point  65 of 100
  INTEG_INFO| Started with Integration point  66 of 100
  INTEG_INFO| Started with Integration point  67 of 100
  INTEG_INFO| Started with Integration point  68 of 100
  INTEG_INFO| Started with Integration point  69 of 100
  INTEG_INFO| Started with Integration point  70 of 100
  INTEG_INFO| Started with Integration point  71 of 100
  INTEG_INFO| Started with Integration point  72 of 100
  INTEG_INFO| Started with Integration point  73 of 100
  INTEG_INFO| Started with Integration point  74 of 100
  INTEG_INFO| Started with Integration point  75 of 100
  INTEG_INFO| Started with Integration point  76 of 100
  INTEG_INFO| Started with Integration point  77 of 100
  INTEG_INFO| Started with Integration point  78 of 100
  INTEG_INFO| Started with Integration point  79 of 100
  INTEG_INFO| Started with Integration point  80 of 100
  INTEG_INFO| Started with Integration point  81 of 100
  INTEG_INFO| Started with Integration point  82 of 100
  INTEG_INFO| Started with Integration point  83 of 100
  INTEG_INFO| Started with Integration point  84 of 100
  INTEG_INFO| Started with Integration point  85 of 100
  INTEG_INFO| Started with Integration point  86 of 100
  INTEG_INFO| Started with Integration point  87 of 100
  INTEG_INFO| Started with Integration point  88 of 100
  INTEG_INFO| Started with Integration point  89 of 100
  INTEG_INFO| Started with Integration point  90 of 100
  INTEG_INFO| Started with Integration point  91 of 100
  INTEG_INFO| Started with Integration point  92 of 100
  INTEG_INFO| Started with Integration point  93 of 100
  INTEG_INFO| Started with Integration point  94 of 100
  INTEG_INFO| Started with Integration point  95 of 100
  INTEG_INFO| Started with Integration point  96 of 100
  INTEG_INFO| Started with Integration point  97 of 100
  INTEG_INFO| Started with Integration point  98 of 100
  INTEG_INFO| Started with Integration point  99 of 100
  INTEG_INFO| Started with Integration point 100 of 100
  PERFORMANCE| Average DGEMM flop rate (Gflops / MPI rank):                 0.00
  
  
  ******************************************************************************
  **                                                                          **
  **                        GW QUASIPARTICLE ENERGIES                         **
  **                                                                          **
  ******************************************************************************
   
   
  The GW quasiparticle energies are calculated according to: 
   
                      E_GW = E_SCF + Sigc(E_GW) + Sigx - vxc 
   
  Upper equation is solved self-consistently for E_GW, see Eq. (12) in J. Phys.
  Chem. Lett. 9, 306 (2018), doi: 10.1021/acs.jpclett.7b02740
  
  
  ------------
  G0W0 results
  ------------
   
  Molecular orbital   E_SCF (eV)       Sigc (eV)   Sigx-vxc (eV)       E_GW (eV)
     1 ( occ )         -187.2047        -10.2734        -21.2628       -218.7409
     2 ( occ )          -13.4896          1.1053         -3.8682        -16.2525
     3 ( occ )           -6.4909          0.1002         -2.6780         -9.0687
     4 ( vir )           -2.1813         -1.3040          4.2008          0.7155
     5 ( vir )           -2.1813         -1.3040          4.2008          0.7155
     6 ( vir )            1.5310         -0.3294          1.9368          3.1384
     7 ( vir )            3.4568         -0.5499          2.0492          4.9561
     8 ( vir )            3.4568         -0.5499          2.0492          4.9561
     9 ( vir )            4.2842         -0.5113          2.2529          6.0258
    10 ( vir )            6.5125         -1.2585          3.6095          8.8635
    11 ( vir )           12.4917         -1.7427          5.0191         15.7681
    12 ( vir )           12.6522         -2.1779          4.9774         15.4516
    13 ( vir )           12.6522         -2.1768          4.9774         15.4528
    14 ( vir )           14.1863         -1.0104          4.7273         17.9032
    15 ( vir )           14.1864         -1.0107          4.7273         17.9030
    16 ( vir )           15.9147         -1.7883          4.8421         18.9686
    17 ( vir )           15.9147         -1.7868          4.8421         18.9701
    18 ( vir )           20.1082         -1.4310          4.7333         23.4105
    19 ( vir )           39.2020          2.3055          7.0245         48.5320
    20 ( vir )           42.5182          2.4758          7.1841         52.1781
   
  G0W0 HOMO-LUMO gap (eV)                                                 9.7842
  
  ------------------------------------------------------------------------------
  
 *******************************************************************************
 **                                                                           **
 **           Bethe Salpeter equation (BSE) for excitation energies           **
 **               solved without Tamm-Dancoff approximation (TDA)             **
 **                                                                           **
 *******************************************************************************
  
 BSE| No cutoff given for occupied orbitals
 BSE| No cutoff given for empty orbitals
 BSE| First occupied index                                                     1
 BSE| Last empty index (not MO index!)                                        17
 BSE| Energy of first occupied index [eV]                               -218.741
 BSE| Energy of last empty index [eV]                                     52.178
 BSE| Energy difference of first occupied index to HOMO [eV]             209.672
 BSE| Energy difference of last empty index to LUMO [eV]                  51.463
 BSE| Number of GW-corrected occupied MOs                                      3
 BSE| Number of GW-corrected empty MOs                                        17
 BSE|
 BSE| No truncation of BSE matrices applied
 BSE|
 BSE| Total peak memory estimate from BSE [GB]                         1.938E-04
 BSE| Peak memory estimate per MPI rank from BSE [GB]                      0.000
 BSE|
 BSE| Diagonalizing aux. matrix with size of A. This will take around 0.E+00 s.
 BSE| Diagonalizing C. This will take around 0.E+00 s.
 BSE|
 BSE|
 BSE| **************************************************************************
 BSE| *      Full ("ABBA") Bethe Salpeter equation (BSE) (i.e. without TDA)    *
 BSE| **************************************************************************
 BSE|
 BSE| The excitations are calculated by diagonalizing the BSE without the TDA:
 BSE|
 BSE|                |A B| |X^n|       |1  0| |X^n|
 BSE|                |B A| |Y^n| = ^n |0 -1| |Y^n|
 BSE|
 BSE| i.e. in index notation:
 BSE|
 BSE|   sum_jb ( A_ia,jb   X_jb^n + B_ia,jb   Y_jb^n ) = ^n X_ia^n
 BSE| - sum_jb ( B_ia,jb   X_jb^n + A_ia,jb   Y_jb^n ) = ^n Y_ia^n
 BSE|
 BSE|
 BSE| i,j:       occupied molecular orbitals, i.e. state in          [   1,   3]
 BSE| a,b:       unoccupied molecular orbitals, i.e. state in        [   4,  20]
 BSE| n:         Excitation index
 BSE|
 BSE| A_ia,jb = (_a-_i) _ij _ab +  * v_ia,jb - W_ij,ab
 BSE| B_ia,jb =  * v_ia,jb - W_ib,aj
 BSE|
 BSE| prelim Ref.: Eqs. (24-27),(30),(35)
 BSE| in PRB 92,045209 (2015); http://dx.doi.org/10.1103/PhysRevB.92.045209 .
 BSE|
 BSE| The BSE is solved for ^n and X_ia^n as a hermitian problem, e.g. Eq.(42)
 BSE| in PRB 92,045209 (2015); http://dx.doi.org/10.1103/PhysRevB.92.045209 .
 BSE|
 BSE| _...:                 GW quasiparticle energy
 BSE| _...:                 Kronecker delta
 BSE| :                     spin-dependent factor
 BSE| v_...:                 Electron-hole exchange interaction
 BSE| W_... = 1/ v_...:     Direct interaction screened by 
 BSE|                        dielectric function (=0)
 BSE|
 BSE|
 BSE| The spin-dependent factor is for the requested Singlet is  = 2.0
 BSE|
 BSE| Excitation energies from solving the BSE without the TDA:
 BSE|
 BSE|     Excitation n   Spin Config       TDA/ABBA   Excitation energy ^n (eV)
 BSE|                1       Singlet         -ABBA-                       1.7219
 BSE|                2       Singlet         -ABBA-                       1.7219
 BSE|                3       Singlet         -ABBA-                       6.8636
 BSE|                4       Singlet         -ABBA-                       8.6708
 BSE|                5       Singlet         -ABBA-                       8.6708
 BSE|                6       Singlet         -ABBA-                      10.0699
 BSE|                7       Singlet         -ABBA-                      10.0699
 BSE|                8       Singlet         -ABBA-                      10.0730
 BSE|                9       Singlet         -ABBA-                      12.0513
 BSE|               10       Singlet         -ABBA-                      13.7279
 BSE|               11       Singlet         -ABBA-                      15.3277
 BSE|               12       Singlet         -ABBA-                      15.3277
 BSE|               13       Singlet         -ABBA-                      16.0106
 BSE|               14       Singlet         -ABBA-                      16.8704
 BSE|               15       Singlet         -ABBA-                      16.8715
 BSE|               16       Singlet         -ABBA-                      18.1807
 BSE|               17       Singlet         -ABBA-                      19.0889
 BSE|               18       Singlet         -ABBA-                      19.0891
 BSE|               19       Singlet         -ABBA-                      19.3176
 BSE|               20       Singlet         -ABBA-                      20.9931
 BSE|               21       Singlet         -ABBA-                      20.9946
 BSE|               22       Singlet         -ABBA-                      24.2429
 BSE|               23       Singlet         -ABBA-                      24.2441
 BSE|               24       Singlet         -ABBA-                      24.6143
 BSE|               25       Singlet         -ABBA-                      26.0090
 BSE|
 BSE| Single-particle transitions are built up by (de-)excitations,
 BSE| which we denote by
 BSE|
 BSE|              =>        for excitations, i.e. entries of X_ia^n,
 BSE|              <=        for deexcitations, i.e. entries of Y_ia^n.
 BSE|
 BSE| The following single-particle transitions have significant contributions,
 BSE| i.e. |X_ia^n| > 0.100 or |Y_ia^n| > 0.100, respectively :
 BSE|         -- Quick reminder: HOMO i =    3 and LUMO a =    4 --
 BSE|
 BSE| Excitation n           i =>/<=     a      TDA/ABBA       |X_ia^n|/|Y_ia^n|
 BSE|
 BSE|            1           3    =>     4        -ABBA-                  0.7192
 BSE|            1           3    =>     5        -ABBA-                  0.1929
 BSE|            1           3    =>     7        -ABBA-                  0.1097
 BSE|            1           3    <=     4        -ABBA-                  0.2520
 BSE|
 BSE|            2           3    =>     4        -ABBA-                  0.1929
 BSE|            2           3    =>     5        -ABBA-                  0.7192
[...]
 J. VandeVondele, M. Krack, J. Hutter.
 J. Chem. Phys. 152, 194103 (2020).
 CP2K: An electronic structure and molecular dynamics software package - 
 Quickstep: Efficient and accurate electronic structure calculations.
 https://doi.org/10.1063/5.0007045

 J. Wilhelm, D. Golze, L. Talirz, J. Hutter, C. A. Pignedoli.
 J. Phys. Chem. Lett. 9, 306-312 (2018).
 Toward GW calculations on thousands of atoms.
 https://doi.org/10.1021/acs.jpclett.7b02740

 J. Wilhelm, J. Hutter.
 Phys. Rev. B 95, 235123 (2017).
 Periodic GW calculations in the Gaussian and plane-waves scheme.
 https://doi.org/10.1103/PhysRevB.95.235123

 O. Schuett, P. Messmer, J. Hutter, J. VandeVondele.
 Electronic Structure Calculations on Graphics Processing Units, 173-190 (2016).
 GPU-Accelerated Sparse Matrix-Matrix Multiplication for Linear Scaling Density 
 Functional Theory.
 https://doi.org/10.1002/9781118670712.ch8

 J. Wilhelm, M. Del Ben, J. Hutter.
 J. Chem. Theory Comput. 12, 3623-3635 (2016).
 GW in the Gaussian and plane waves scheme with application to linear acenes.
 https://doi.org/10.1021/acs.jctc.6b00380

 M. Del Ben, O. Schuett, T. Wentz, P. Messmer, J. Hutter, J. VandeVondele.
 Comput. Phys. Commun. 187, 120-129 (2015).
 Enabling simulation at the fifth rung of DFT: Large scale RPA calculations with 
 excellent time to solution.
 https://doi.org/10.1016/j.cpc.2014.10.021

 J. Hutter, M. Iannuzzi, F. Schiffmann, J. VandeVondele.
 WIREs Comput Mol Sci. 4, 15-25 (2014).
 CP2K: atomistic simulations of condensed matter systems.
 https://doi.org/10.1002/wcms.1159

 U. Borstnik, J. VandeVondele, V. Weber, J. Hutter.
 Parallel Comput. 40, 47-58 (2014).
 Sparse matrix multiplication: The distributed block-compressed sparse row 
 library.
 https://doi.org/10.1016/j.parco.2014.03.012

 M. Del Ben, J. Hutter, J. VandeVondele.
 J. Chem. Theory Comput. 9, 2654-2671 (2013).
 Electron Correlation in the Condensed Phase from a Resolution of Identity 
 Approach Based on the Gaussian and Plane Waves Scheme.
 https://doi.org/10.1021/ct4002202

 M. Del Ben, J. Hutter, J. VandeVondele.
 J. Chem. Theory Comput. 8, 4177-4188 (2012).
 Second-Order Moller-Plesset Perturbation Theory in the Condensed Phase: An 
 Efficient and Massively Parallel Gaussian and Plane Waves Approach.
 https://doi.org/10.1021/ct300531w

 M. Guidon, J. Hutter, J. VandeVondele.
 J. Chem. Theory Comput. 5, 3010-3021 (2009).
 Robust Periodic Hartree-Fock Exchange for Large-Scale Simulations Using 
 Gaussian Basis Sets.
 https://doi.org/10.1021/ct900494g

 M. Guidon, F. Schiffmann, J. Hutter, J. VandeVondele.
 J. Chem. Phys. 128, 214104 (2008).
 Ab initio molecular dynamics using hybrid density functionals.
 https://doi.org/10.1063/1.2931945

 L. Genovese, T. Deutsch, S. Goedecker.
 J. Chem. Phys. 127, 054704 (2007).
 Efficient and accurate three-dimensional Poisson solver for surface problems.
 https://doi.org/10.1063/1.2754685

 J. VandeVondele, J. Hutter.
 J. Chem. Phys. 127, 114105 (2007).
 Gaussian basis sets for accurate calculations on molecular systems in gas and 
 condensed phases.
 https://doi.org/10.1063/1.2770708

 L. Genovese, T. Deutsch, A. Neelov, S. Goedecker, G. Beylkin.
 J. Chem. Phys. 125, 074105 (2006).
 Efficient solution of Poisson's equation with free boundary conditions.
 https://doi.org/10.1063/1.2335442

 M. Frigo, S. G. Johnson.
 Proc. IEEE 93, 216-231 (2005).
 The design and implementation of FFTW3.
 https://doi.org/10.1109/JPROC.2004.840301

 M. Krack, M. Parrinello.
 Phys. Chem. Chem. Phys. 2, 2105-2112 (2000).
 All-electron ab-initio molecular dynamics.
 https://doi.org/10.1039/b001167n

 G. Lippert, J. Hutter, M. Parrinello.
 Theor. Chem. Acc. 103, 124-140 (1999).
 The Gaussian and augmented-plane-wave density functional method for ab initio 
 molecular dynamics simulations.
 https://doi.org/10.1007/s002140050523

 J. P. Perdew, K. Burke, M. Ernzerhof.
 Phys. Rev. Lett. 77, 3865-3868 (1996).
 Generalized gradient approximation made simple.
 https://doi.org/10.1103/PhysRevLett.77.3865


 -------------------------------------------------------------------------------
 -                                                                             -
 -                                T I M I N G                                  -
 -                                                                             -
 -------------------------------------------------------------------------------
 SUBROUTINE                       CALLS  ASD         SELF TIME        TOTAL TIME
                                MAXIMUM       AVERAGE  MAXIMUM  AVERAGE  MAXIMUM
 CP2K                                 1  1.0    0.044    0.067  223.851  223.851
 qs_energies                          1  2.0    0.000    0.001  222.585  222.804
 scf_env_do_scf                       1  3.0    0.000    0.000  218.216  218.216
 scf_env_do_scf_inner_loop           41  4.0    0.001    0.003  218.216  218.216
 qs_ks_build_kohn_sham_matrix        42  7.0    0.007    0.008  167.544  167.550
 qs_ks_update_qs_env                 41  5.0    0.000    0.000  165.131  165.136
 rebuild_ks_matrix                   41  6.0    0.000    0.000  165.129  165.134
 fft_wrap_pw1pw2                    874  9.9    0.020    0.027   99.087   99.863
 fft_wrap_pw1pw2_250                622 11.1    4.424    4.948   96.067   96.989
 fft3d_ps                           874 11.9   42.743   44.509   77.855   78.903
 pw_poisson_solve                    42  8.0    1.838    1.866   68.363   68.390
 qs_vxc_create                       42  8.0    0.001    0.001   59.050   59.050
 xc_vxc_pw_create                    41  9.0    1.052    1.141   59.049   59.049
 ps_wavelet_solve                    42  9.0   37.956   40.412   44.670   44.779
 xc_pw_derive                       246 11.0    0.003    0.004   43.058   44.355
 mp_alltoall_d54                     42 10.0    4.081   35.019    4.081   35.019
 xc_rho_set_and_dset_create          41 10.0    0.823    1.014   28.985   29.920
 xc_pw_divergence                    41 10.0    0.002    0.002   28.553   29.685
 gspace_mixing                       40  5.0    0.781    0.788   28.390   28.390
 mp_alltoall_z22v                   874 13.9   21.533   28.384   21.533   28.384
 qs_rho_update_rho_low               42  5.0    0.000    0.000   25.097   25.097
 calculate_rho_elec                  42  6.0    0.821    0.828   25.065   25.065
 broyden_mixing                      40  6.0   20.993   21.347   21.356   21.494
 yz_to_x                            418 12.8    4.341    5.271   15.523   20.047
 x_to_yz                            456 13.1    9.226    9.494   19.577   19.984
 density_rs2pw                       42  7.0    0.003    0.003   18.711   18.888
 sum_up_and_integrate                42  8.0    0.001    0.001   13.390   13.414
 integrate_v_rspace                  42  9.0    0.001    0.001   13.136   13.176
 potential_pw2rs                     42 10.0    0.037    0.041   12.867   12.911
 prepare_gapw_den                    42  8.0    0.001    0.001   10.621   10.767
 put_rho0_on_grid                    42  9.0    0.822    0.831   10.264   10.410
 transfer_pw2rs                     211 10.5    0.003    0.004    7.450    7.504
 pw_scatter_p                       456 12.1    7.173    7.290    7.173    7.290
 pw_gather_p                        418 11.8    5.994    6.583    5.994    6.583
 xc_functional_eval                 123 10.9    0.000    0.001    5.636    6.579
 pbe_lda_eval                       123 11.9    5.636    6.579    5.636    6.579
 transfer_rs2pw                     212  8.4    0.006    0.008    6.463    6.557
 mp_waitany                        7140 11.4    5.180    5.666    5.180    5.666
 transfer_pw2rs_250                  85 10.9    2.000    2.125    5.421    5.537
 grid_collocate_task_list            42  7.0    5.243    5.432    5.243    5.432
 pw_derive                          372 11.3    4.944    5.194    4.944    5.194
 transfer_rs2pw_250                  86  9.9    2.114    2.243    4.820    4.925
 hfx_ks_matrix                       42  8.0    0.001    0.002    4.060    4.116
 integrate_four_center               42  9.0    0.866    1.815    4.058    4.113
 mp_sum_d                          1193  5.4    2.317    3.817    2.317    3.817
 integrate_vhg0_rspace               42  8.0    0.015    0.019    3.396    3.403
 mp_sync                            615  9.2    2.298    3.202    2.298    3.202
 mp2_main                             1  3.0    0.000    0.000    2.884    3.104
 mp_alltoall_d45                     43 10.0    2.239    3.078    2.239    3.078
 cp2k_distribution_to_z_slices       42  9.0    1.673    1.797    2.604    2.877
 fft_wrap_pw1pw2_90                  84 10.5    0.127    0.164    2.478    2.870
 pw_copy                            625 10.6    2.665    2.829    2.665    2.829
 pw_poisson_set                      43  8.9    0.001    0.002    2.490    2.517
 compute_vec_Sigma_x_minus_vxc_       1  4.0    0.000    0.000    2.419    2.419
 pw_copy_to_array                   418 11.8    2.222    2.396    2.222    2.396
 mp_alltoall_d11v                   792  9.4    1.763    2.395    1.763    2.395
 pw_axpy                            457  9.2    2.119    2.339    2.119    2.339
 pw_poisson_rebuild                  42  9.0    0.000    0.000    1.811    1.839
 ps_wavelet_create                    1 10.0    0.000    0.000    1.811    1.839
 RS_z_slice_distribution              1 11.0    1.654    1.716    1.811    1.839
 rs_grid_zero                       213 11.1    1.698    1.730    1.698    1.730
 integrate_four_center_main          42 10.0    0.067    1.470    0.074    1.587
 pw_integral_ab_c1d_c1d_gs           42  9.0    1.248    1.368    1.508    1.584
 pw_copy_from_array                 456 12.1    1.247    1.506    1.247    1.506
 transfer_pw2rs_90                   42 12.0    0.313    0.345    1.014    1.112
 init_scf_run                         1  3.0    0.000    0.000    0.945    0.946
 scf_env_initial_rho_setup            1  4.0    0.000    0.000    0.942    0.943
 mp_isend_dv                       7241 11.6    0.570    0.937    0.570    0.937
 pw_zero                            248 10.3    0.850    0.891    0.850    0.891
 qs_init_subsys                       1  2.0    0.003    0.004    0.850    0.851
 qs_env_setup                         1  3.0    0.000    0.000    0.843    0.843
 qs_env_rebuild_pw_env                2  3.5    0.000    0.000    0.842    0.843
 pw_env_rebuild                       1  5.0    0.001    0.001    0.842    0.842
 pw_grid_setup                        4  6.0    0.000    0.000    0.834    0.834
 pw_grid_setup_internal               4  7.0    0.019    0.024    0.834    0.834
 transfer_pw2rs_30                   42 12.0    0.466    0.498    0.782    0.828
 calculate_vxc_atom                  42  8.0    0.007    0.061    0.828    0.828
 transfer_rs2pw_90                   42  9.0    0.251    0.275    0.762    0.820
 gaVxcgb_GC                          41  9.0    0.031    0.737    0.031    0.737
 transfer_rs2pw_30                   42  9.0    0.360    0.369    0.697    0.717
 pw_grid_sort                         4  8.0    0.471    0.474    0.667    0.672
 mp_waitall_1                      7659 12.1    0.508    0.671    0.508    0.671
 calc_screening_functions             1 10.0    0.471    0.475    0.623    0.626
 Vh_1c_gg_integrals                  42  8.0    0.006    0.076    0.199    0.611
 mp_max_i                           532  2.5    0.298    0.584    0.298    0.584
 scale_and_distribute                84 10.0    0.551    0.577    0.551    0.577
 mp_sum_dm                          172  7.6    0.365    0.552    0.365    0.552
 mp_irecv_dm3                      1020 11.4    0.271    0.524    0.271    0.524
 mp_sendrecv_dv                    1932 10.0    0.448    0.473    0.448    0.473
 fft_wrap_pw1pw2_30                  84 10.5    0.020    0.023    0.426    0.452
 mp_isend_dm3                      1020 11.4    0.250    0.419    0.250    0.419
 mp_sum_dv                         1849 11.5    0.324    0.399    0.324    0.399
 mp_sum_i                            17  9.9    0.220    0.383    0.220    0.383
 restraint_control                    1  2.0    0.000    0.000    0.220    0.382
 mp2_main_alloc_hfx                   1  4.0    0.163    0.382    0.163    0.382
 qs_energies_init_hamiltonians        1  3.0    0.000    0.000    0.374    0.374
 calculate_rho_atom                  42  9.0    0.094    0.343    0.094    0.343
 qs_env_update_s_mstruct              1  4.0    0.000    0.000    0.330    0.330
 calculate_rho_core                   1  5.0    0.020    0.020    0.311    0.327
 mixing_init                          1  5.0    0.288    0.297    0.297    0.298
 mp2_gpw_main                         1  4.0    0.000    0.000    0.287    0.298
 pw_scale                           165  9.5    0.242    0.288    0.242    0.288
 rs_gather_matrices                  42 10.0    0.000    0.001    0.228    0.269
 powell_optimize                 103624 11.0    0.257    0.260    0.257    0.260
 grid_integrate_task_list            42 10.0    0.040    0.259    0.040    0.259
 transfer_pw2rs_10                   42 12.0    0.100    0.104    0.229    0.245
 qs_scf_new_mos                      41  5.0    0.001    0.001    0.224    0.227
 rpa_ri_compute_en                    1  5.0    0.000    0.001    0.207    0.208
 rpa_num_int                          1  6.0    0.001    0.001    0.205    0.206
 sort_shells                          4  9.0    0.196    0.198    0.196    0.198
 mp_isendrecv_dv                   3864 12.0    0.119    0.198    0.119    0.198
 calc_pair_dist_radii                 1 10.0    0.087    0.088    0.192    0.195
 transfer_rs2pw_10                   42  9.0    0.066    0.069    0.178    0.184
 scf_post_calculation_gpw             1  3.0    0.000    0.000    0.165    0.166
 write_available_results              1  4.0    0.000    0.000    0.165    0.165
 write_mo_free_results                1  5.0    0.026    0.027    0.164    0.165
 xc_pw_smooth                        41 10.0    0.000    0.000    0.112    0.143
 integrate_four_center_bin         3440 11.0    0.006    0.117    0.006    0.117
 pw_grid_assign                       4  8.0    0.103    0.104    0.105    0.106
 fft_wrap_pw1pw2_10                  84 10.5    0.005    0.005    0.096    0.104
 cp_fm_syevd                         45  7.1    0.000    0.000    0.099    0.100
 mp_irecv_dv                       7226 11.6    0.058    0.100    0.058    0.100
 eigensolver                         42  6.0    0.003    0.003    0.098    0.099
 calculate_dm_sparse                 41  6.0    0.000    0.000    0.088    0.090
 cp_dbcsr_plus_fm_fm_t               41  7.0    0.001    0.001    0.088    0.089
 rpa_num_int_RPA_matrix_operati     100  7.0    0.001    0.002    0.089    0.089
 create_qs_kind_set                   1  2.0    0.000    0.000    0.081    0.082
 read_qs_kind                         2  3.0    0.027    0.031    0.081    0.082
 compute_GW_self_energy             100  7.0    0.001    0.001    0.073    0.081
 dbcsr_multiply_generic              62  8.2    0.003    0.003    0.074    0.076
 cp_fm_redistribute_end              45  8.1    0.044    0.075    0.045    0.075
 calculate_hirshfeld_normalizat       1  6.0    0.000    0.002    0.068    0.072
 hirshfeld_integration                1  6.0    0.000    0.001    0.066    0.068
 calc_mat_Q                         100  8.0    0.000    0.000    0.064    0.065
 mp2_ri_gpw_compute_in                1  5.0    0.000    0.000    0.064    0.064
 contract_S_to_Q                    100  9.0    0.000    0.000    0.063    0.064
 mp2_ri_gpw_compute_in_loop           1  6.0    0.000    0.000    0.062    0.062
 cp_fm_syevd_base                    45  8.1    0.030    0.060    0.030    0.060
 parser_read_line                  4462  4.0    0.002    0.002    0.055    0.058
 contract_B_L                         4  7.0    0.001    0.001    0.054    0.057
 parser_read_line_low                12  5.0    0.006    0.021    0.053    0.056
 broadcast_input_information         12  6.0    0.014    0.016    0.047    0.052
 compute_GW_self_energy_deep        100  8.0    0.020    0.028    0.045    0.052
 copy_dbcsr_to_fm                    60  6.5    0.001    0.001    0.047    0.051
 cp_fm_to_fm_submat_general         112 10.1    0.049    0.050    0.049    0.050
 parallel_gemm_fm                   217  9.5    0.000    0.000    0.046    0.047
 parallel_gemm_fm_gemm              217 10.5    0.000    0.000    0.046    0.047
 cp_fm_gemm                         217 11.5    0.046    0.047    0.046    0.047
 dbcsr_complete_redistribute        146  8.4    0.005    0.006    0.043    0.044
 build_core_hamiltonian_matrix        1  4.0    0.000    0.000    0.043    0.043
 overlap_condnum                      1  5.0    0.000    0.000    0.041    0.042
 make_m2s                           124  9.2    0.002    0.002    0.038    0.040
 dbt_total                            8  8.0    0.000    0.000    0.036    0.036
 dbt_contract                         4  9.0    0.001    0.001    0.034    0.034
 pw_grid_remap                        4  8.0    0.013    0.014    0.027    0.034
 start_bse_calculation                1  7.0    0.000    0.000    0.033    0.033
 offload_free_buffer                 50  8.0    0.026    0.033    0.026    0.033
 calculate_rho_atom_coeff            42  6.0    0.007    0.013    0.031    0.031
 mp_sum_l                           746  5.3    0.020    0.029    0.020    0.029
 arnoldi_conjugate_gradient           5  6.0    0.001    0.001    0.028    0.028
 dbcsr_desymmetrize_deep             62  7.4    0.001    0.001    0.025    0.028
 mp_comm_split_direct                48 14.5    0.017    0.027    0.017    0.027
 qs_create_task_list                  1  5.0    0.000    0.000    0.019    0.027
 generate_qs_task_list                1  6.0    0.000    0.000    0.018    0.027
 distribute_tasks                     1  7.0    0.000    0.000    0.018    0.026
 vxc_of_r_new                        82  9.0    0.000    0.004    0.001    0.026
 mp_min_d                             1  6.0    0.010    0.026    0.010    0.026
 load_balance_distributed             2  8.0    0.000    0.000    0.017    0.026
 get_current_loads                   12  9.0    0.000    0.000    0.017    0.026
 mp_alltoall_l                       13  9.9    0.016    0.025    0.016    0.025
 compute_load_list                    4  9.0    0.000    0.000    0.016    0.025
 cp_fm_redistribute_start            45  8.1    0.019    0.019    0.024    0.025
 multiply_cannon                     62  9.2    0.005    0.005    0.024    0.025
 copy_fm_to_dbcsr                    86  8.1    0.000    0.000    0.023    0.024
 mp_bcast_i_src                      48  7.0    0.018    0.024    0.018    0.024
 mp2_main_free_hfx                    1  4.0    0.010    0.024    0.010    0.024
 dbt_tas_multiply                     8 11.5    0.000    0.000    0.024    0.024
 dbt_tas_total                        8 12.5    0.001    0.001    0.023    0.023
 cp_fm_cholesky_invert              101  8.0    0.020    0.023    0.020    0.023
 diagonalize_C                        1  8.0    0.000    0.000    0.022    0.023
 mp_cart_create                     247 11.1    0.020    0.022    0.020    0.023
 -------------------------------------------------------------------------------

 The number of warnings for this run is : 1
 
 -------------------------------------------------------------------------------
  **** **** ******  **  PROGRAM ENDED AT                 2025-03-03 08:09:23.253
 ***** ** ***  *** **   PROGRAM RAN ON                              i01r05c06s02
 **    ****   ******    PROGRAM RAN BY                                   di38fab
 ***** **    ** ** **   PROGRAM PROCESS ID                               3714413
  **** **  *******  **  PROGRAM STOPPED IN /hppfs/scratch/04/di38fab/05_MOL/W4-1
                                           1+ALK/bh/SZVSR
