 DBCSR| CPU Multiplication driver                                           BLAS (U)
 DBCSR| Multrec recursion limit                                              512 (U)
 DBCSR| Multiplication stack size                                           1000 (D)
 DBCSR| Maximum elements for images                                    UNLIMITED (U)
 DBCSR| Multiplicative factor virtual images                                   1 (U)
 DBCSR| Use multiplication densification                                       T (D)
 DBCSR| Multiplication size stacks                                             3 (U)
 DBCSR| Use memory pool for CPU allocation                                     F (U)
 DBCSR| Number of 3D layers                                               SINGLE (U)
 DBCSR| Use MPI memory allocation                                              F (U)
 DBCSR| Use RMA algorithm                                                      F (U)
 DBCSR| Use Communication thread                                               T (U)
 DBCSR| Communication thread load                                             75 (D)
 DBCSR| MPI: My process id                                                     0
 DBCSR| MPI: Number of processes                                              24
 DBCSR| OMP: Current number of threads                                         4
 DBCSR| OMP: Max number of threads                                             4
 DBCSR| Split modifier for TAS multiplication algorithm                  1.0E+00 (U)


  **** **** ******  **  PROGRAM STARTED AT               2025-03-04 07:14:35.305
 ***** ** ***  *** **   PROGRAM STARTED ON                          i02r01c01s05
 **    ****   ******    PROGRAM STARTED BY                               di38fab
 ***** **    ** ** **   PROGRAM PROCESS ID                               1076876
  **** **  *******  **  PROGRAM STARTED IN /hppfs/scratch/04/di38fab/05_MOL/W4-1
                                           1+ALK/bn/SZVSR

 CP2K| version string:                 CP2K version 2025.1 (Development Version)
 CP2K| source code revision number:                                  git:47877ba
 CP2K| cp2kflags: omp libint fftw3 libxc parallel scalapack max_contr=4         
 CP2K| is freely available from                            https://www.cp2k.org/
 CP2K| Program compiled at                          Thu Feb 20 16:00:34 CET 2025
 CP2K| Program compiled on                                               login04
 CP2K| Program compiled for                                        Supermuc-foss
 CP2K| Data directory path          /hppfs/work/pn36zo/di38fab/newcp2k/cp2k/data
 CP2K| Input file name                                                    GW.inp

 GLOBAL| Force Environment number                                              1
 GLOBAL| Basis set file name            /hppfs/scratch/04/di38fab/04_TMD/BASIS_A
 GLOBAL| Potential file name            /hppfs/work/pn36zo/di38fab/cp2k/data/ALL
 GLOBAL| MM Potential file name                                     MM_POTENTIAL
 GLOBAL| Coordinate file name                                      __STD_INPUT__
 GLOBAL| Method name                                                        CP2K
 GLOBAL| Project name                                                       MoS2
 GLOBAL| Run type                                                         ENERGY
 GLOBAL| FFT library                                                       FFTW3
 GLOBAL| Diagonalization library                                       ScaLAPACK
 GLOBAL| DGEMM library                                                      BLAS
 GLOBAL| Orthonormality check for eigenvectors                          DISABLED
 GLOBAL| Matrix multiplication library                                 ScaLAPACK
 GLOBAL| All-to-all communication in single precision                          F
 GLOBAL| FFTs using library dependent lengths                                  F
 GLOBAL| Grid backend                                                       AUTO
 GLOBAL| Global print level                                               MEDIUM
 GLOBAL| MPI I/O enabled                                                       T
 GLOBAL| Total number of message passing processes                            24
 GLOBAL| Number of threads for this process                                    4
 GLOBAL| This output is from process                                           0
 GLOBAL| OpenMP stack size per thread (OMP_STACKSIZE)                    default
 GLOBAL| CPU model name             Intel(R) Xeon(R) Platinum 8174 CPU @ 3.10GHz

 MEMORY| system memory details [Kb]
 MEMORY|                        rank 0           min           max       average
 MEMORY| MemTotal             98436708      98436664      98436708      98436686
 MEMORY| MemFree              83860760      83644708      83860760      83752734
 MEMORY| Buffers                     0             0             0             0
 MEMORY| Cached                2436396       2436396       2452600       2444498
 MEMORY| Slab                  1245792       1239916       1245792       1242854
 MEMORY| SReclaimable           269568        269568        273768        271668
 MEMORY| MemLikelyFree        86566724      86371076      86566724      86468900


 *** Fundamental physical constants (SI units) ***

 *** Literature: B. J. Mohr and B. N. Taylor,
 ***             CODATA recommended values of the fundamental physical
 ***             constants: 2006, Web Version 5.1
 ***             http://physics.nist.gov/constants

 Speed of light in vacuum [m/s]                             2.99792458000000E+08
 Magnetic constant or permeability of vacuum [N/A**2]       1.25663706143592E-06
 Electric constant or permittivity of vacuum [F/m]          8.85418781762039E-12
 Planck constant (h) [J*s]                                  6.62606896000000E-34
 Planck constant (h-bar) [J*s]                              1.05457162825177E-34
 Elementary charge [C]                                      1.60217648700000E-19
 Electron mass [kg]                                         9.10938215000000E-31
 Electron g factor [ ]                                     -2.00231930436220E+00
 Proton mass [kg]                                           1.67262163700000E-27
 Fine-structure constant                                    7.29735253760000E-03
 Rydberg constant [1/m]                                     1.09737315685270E+07
 Avogadro constant [1/mol]                                  6.02214179000000E+23
 Boltzmann constant [J/K]                                   1.38065040000000E-23
 Atomic mass unit [kg]                                      1.66053878200000E-27
 Bohr radius [m]                                            5.29177208590000E-11

 *** Conversion factors ***

 [u] -> [a.u.]                                              1.82288848426455E+03
 [Angstrom] -> [Bohr] = [a.u.]                              1.88972613288564E+00
 [a.u.] = [Bohr] -> [Angstrom]                              5.29177208590000E-01
 [a.u.] -> [s]                                              2.41888432650478E-17
 [a.u.] -> [fs]                                             2.41888432650478E-02
 [a.u.] -> [J]                                              4.35974393937059E-18
 [a.u.] -> [N]                                              8.23872205491840E-08
 [a.u.] -> [K]                                              3.15774647902944E+05
 [a.u.] -> [kJ/mol]                                         2.62549961709828E+03
 [a.u.] -> [kcal/mol]                                       6.27509468713739E+02
 [a.u.] -> [Pa]                                             2.94210107994716E+13
 [a.u.] -> [bar]                                            2.94210107994716E+08
 [a.u.] -> [atm]                                            2.90362800883016E+08
 [a.u.] -> [eV]                                             2.72113838565563E+01
 [a.u.] -> [Hz]                                             6.57968392072181E+15
 [a.u.] -> [1/cm] (wave numbers)                            2.19474631370540E+05
 [a.u./Bohr**2] -> [1/cm]                                   5.14048714338585E+03
 

 CELL_TOP| Volume [angstrom^3]:                                     27000.000000
 CELL_TOP| Vector a [angstrom    30.000     0.000     0.000   |a| =    30.000000
 CELL_TOP| Vector b [angstrom     0.000    30.000     0.000   |b| =    30.000000
 CELL_TOP| Vector c [angstrom     0.000     0.000    30.000   |c| =    30.000000
 CELL_TOP| Angle (b,c), alpha [degree]:                                90.000000
 CELL_TOP| Angle (a,c), beta  [degree]:                                90.000000
 CELL_TOP| Angle (a,b), gamma [degree]:                                90.000000
 CELL_TOP| Numerically orthorhombic:                                         YES
 CELL_TOP| Periodicity                                                      NONE

 GENERATE|  Preliminary Number of Bonds generated:                             0
 GENERATE|  Achieved consistency in connectivity generation.

 CELL| Volume [angstrom^3]:                                         27000.000000
 CELL| Vector a [angstrom]:      30.000     0.000     0.000   |a| =    30.000000
 CELL| Vector b [angstrom]:       0.000    30.000     0.000   |b| =    30.000000
 CELL| Vector c [angstrom]:       0.000     0.000    30.000   |c| =    30.000000
 CELL| Angle (b,c), alpha [degree]:                                    90.000000
 CELL| Angle (a,c), beta  [degree]:                                    90.000000
 CELL| Angle (a,b), gamma [degree]:                                    90.000000
 CELL| Numerically orthorhombic:                                             YES
 CELL| Periodicity                                                          NONE

 CELL_REF| Volume [angstrom^3]:                                     27000.000000
 CELL_REF| Vector a [angstrom    30.000     0.000     0.000   |a| =    30.000000
 CELL_REF| Vector b [angstrom     0.000    30.000     0.000   |b| =    30.000000
 CELL_REF| Vector c [angstrom     0.000     0.000    30.000   |c| =    30.000000
 CELL_REF| Angle (b,c), alpha [degree]:                                90.000000
 CELL_REF| Angle (a,c), beta  [degree]:                                90.000000
 CELL_REF| Angle (a,b), gamma [degree]:                                90.000000
 CELL_REF| Numerically orthorhombic:                                         YES
 CELL_REF| Periodicity                                                      NONE

 *******************************************************************************
 *******************************************************************************
 **                                                                           **
 **     #####                         ##              ##                      **
 **    ##   ##            ##          ##              ##                      **
 **   ##     ##                       ##            ######                    **
 **   ##     ##  ##   ##  ##   #####  ##  ##   ####   ##    #####    #####    **
 **   ##     ##  ##   ##  ##  ##      ## ##   ##      ##   ##   ##  ##   ##   **
 **   ##  ## ##  ##   ##  ##  ##      ####     ###    ##   ######   ######    **
 **    ##  ###   ##   ##  ##  ##      ## ##      ##   ##   ##       ##        **
 **     #######   #####   ##   #####  ##  ##  ####    ##    #####   ##        **
 **           ##                                                    ##        **
 **                                                                           **
 **                                                ... make the atoms dance   **
 **                                                                           **
 **            Copyright (C) by CP2K developers group (2000-2025)             **
 **                      J. Chem. Phys. 152, 194103 (2020)                    **
 **                                                                           **
 *******************************************************************************

 DFT| Spin restricted Kohn-Sham (RKS) calculation                            RKS
 DFT| Multiplicity                                                             1
 DFT| Number of spin states                                                    1
 DFT| Charge                                                                   0
 DFT| Self-interaction correction (SIC)                                       NO
 DFT| Cutoffs: density                                              1.000000E-10
 DFT|          gradient                                             1.000000E-10
 DFT|          tau                                                  1.000000E-10
 DFT|          cutoff_smoothing_range                               0.000000E+00
 DFT| XC density smoothing                                                  NONE
 DFT| XC derivatives                                                          PW

 FUNCTIONAL| PBE:
 FUNCTIONAL| J.P.Perdew, K.Burke, M.Ernzerhof, Phys. Rev. Letter, vol. 77, n 18,
 FUNCTIONAL|  pp. 3865-3868, (1996)sx=0.750sc=1.000{spin unpolarized}           


 QS| Method:                                                                GAPW
 QS| Density plane wave grid type                        NON-SPHERICAL FULLSPACE
 QS| Number of grid levels:                                                    4
 QS| Density cutoff [a.u.]:                                                250.0
 QS| Multi grid cutoff [a.u.]: 1) grid level                               250.0
 QS|                           2) grid level                                83.3
 QS|                           3) grid level                                27.8
 QS|                           4) grid level                                 9.3
 QS| Grid level progression factor:                                          3.0
 QS| Relative density cutoff [a.u.]:                                        50.0
 QS| Interaction thresholds: eps_pgf_orb:                                1.0E-12
 QS|                         eps_filter_matrix:                          0.0E+00
 QS|                         eps_core_charge:                            1.0E-14
 QS|                         eps_rho_gspace:                             1.0E-12
 QS|                         eps_rho_rspace:                             1.0E-12
 QS|                         eps_gvg_rspace:                             1.0E-06
 QS|                         eps_ppl:                                    1.0E-02
 QS|                         eps_ppnl:                                   1.0E-08
 QS| GAPW|      One center basis from orbital basis primitives
 QS| GAPW|                   eps_fit:                                    1.0E-04
 QS| GAPW|                   eps_iso:                                    1.0E-12
 QS| GAPW|                   eps_svd:                                    1.0E-08
 QS| GAPW|                   eps_cpc:                                    1.0E-12
 QS| GAPW|   atom-r-grid: quadrature:                                     GC_LOG
 QS| GAPW|      atom-s-grid:  max l :                                          4
 QS| GAPW|      max_l_rho0 :                                                   2


 ATOMIC KIND INFORMATION

  1. Atomic kind: B                                     Number of atoms:       1

     Orbital Basis Set                                         aug-SZV-MOLOPT-ae

       Number of orbital shell sets:                                           2
       Number of orbital shells:                                               6
       Number of primitive Cartesian functions:                               13
       Number of Cartesian basis functions:                                   15
       Number of spherical basis functions:                                   14
       Norm type:                                                              2

       Normalised Cartesian orbitals:

                        Set   Shell   Orbital            Exponent    Coefficient

                          1       1    1s                0.109280       0.032606
                                                         0.155613       0.000000
                                                         0.238409       0.144712
                                                         0.548949       0.113742
                                                         1.426820      -0.031435
                                                         4.590809      -0.105038
                                                        23.194561      -0.099829

                          1       2    2s                0.109280      -0.049098
                                                         0.155613      -0.119813
                                                         0.238409      -0.025283
                                                         0.548949       0.056653
                                                         1.426820       0.132404
                                                         4.590809       0.000000
                                                        23.194561       0.000000

                          1       3    2px               0.109280       0.009109
                                                         0.155613       0.000000
                                                         0.238409       0.101125
                                                         0.548949       0.281559
                                                         1.426820       0.386539
                                                         4.590809       0.360915
                                                        23.194561       0.272788
                          1       3    2py               0.109280       0.009109
                                                         0.155613       0.000000
                                                         0.238409       0.101125
                                                         0.548949       0.281559
                                                         1.426820       0.386539
                                                         4.590809       0.360915
                                                        23.194561       0.272788
                          1       3    2pz               0.109280       0.009109
                                                         0.155613       0.000000
                                                         0.238409       0.101125
                                                         0.548949       0.281559
                                                         1.426820       0.386539
                                                         4.590809       0.360915
                                                        23.194561       0.272788

                          1       4    3px               0.109280       0.062233
                                                         0.155613       0.035668
                                                         0.238409       0.015304
                                                         0.548949      -0.003054
                                                         1.426820       0.021875
                                                         4.590809       0.000000
                                                        23.194561       0.000000
                          1       4    3py               0.109280       0.062233
                                                         0.155613       0.035668
                                                         0.238409       0.015304
                                                         0.548949      -0.003054
                                                         1.426820       0.021875
                                                         4.590809       0.000000
                                                        23.194561       0.000000
                          1       4    3pz               0.109280       0.062233
                                                         0.155613       0.035668
                                                         0.238409       0.015304
                                                         0.548949      -0.003054
                                                         1.426820       0.021875
                                                         4.590809       0.000000
                                                        23.194561       0.000000

                          1       5    3dx2              0.109280       0.000986
                                                         0.155613       0.002022
                                                         0.238409       0.109458
                                                         0.548949       0.095099
                                                         1.426820       0.028232
                                                         4.590809       0.000000
                                                        23.194561       0.000000
                          1       5    3dxy              0.109280       0.001708
                                                         0.155613       0.003503
                                                         0.238409       0.189586
                                                         0.548949       0.164717
                                                         1.426820       0.048900
                                                         4.590809       0.000000
                                                        23.194561       0.000000
                          1       5    3dxz              0.109280       0.001708
                                                         0.155613       0.003503
                                                         0.238409       0.189586
                                                         0.548949       0.164717
                                                         1.426820       0.048900
                                                         4.590809       0.000000
                                                        23.194561       0.000000
                          1       5    3dy2              0.109280       0.000986
                                                         0.155613       0.002022
                                                         0.238409       0.109458
                                                         0.548949       0.095099
                                                         1.426820       0.028232
                                                         4.590809       0.000000
                                                        23.194561       0.000000
                          1       5    3dyz              0.109280       0.001708
                                                         0.155613       0.003503
                                                         0.238409       0.189586
                                                         0.548949       0.164717
                                                         1.426820       0.048900
                                                         4.590809       0.000000
                                                        23.194561       0.000000
                          1       5    3dz2              0.109280       0.000986
                                                         0.155613       0.002022
                                                         0.238409       0.109458
                                                         0.548949       0.095099
                                                         1.426820       0.028232
                                                         4.590809       0.000000
                                                        23.194561       0.000000

                          2       1    1s              506.011837       0.696781
                                                        92.776716       1.051665
                                                        25.955582       1.381280
                                                         8.916443       1.362748
                                                         3.462516       0.753460
                                                         1.426055       0.121219

     RI Auxiliary Basis Set             RI_aug-SZV-MOLOPT-ae_N_RI_032_s_p_d_f_g_

       Number of orbital shell sets:                                          12
       Number of orbital shells:                                              12
       Number of primitive Cartesian functions:                               12
       Number of Cartesian basis functions:                                   37
       Number of spherical basis functions:                                   32
       Norm type:                                                              2

       Normalised Cartesian orbitals:

                        Set   Shell   Orbital            Exponent    Coefficient

                          1       1    1s                0.209619       0.220792

                          2       1    7px               0.279173       0.289256
                          2       1    7py               0.279173       0.289256
                          2       1    7pz               0.279173       0.289256

                          3       1   10dx2              0.438607       0.389083
                          3       1   10dxy              0.438607       0.673912
                          3       1   10dxz              0.438607       0.673912
                          3       1   10dy2              0.438607       0.389083
                          3       1   10dyz              0.438607       0.673912
                          3       1   10dz2              0.438607       0.389083

                          4       1   12fx3              0.550449       0.384210
                          4       1   12fx2y             0.550449       0.859120
                          4       1   12fx2z             0.550449       0.859120
                          4       1   12fxy2             0.550449       0.859120
                          4       1   12fxyz             0.550449       1.488039
                          4       1   12fxz2             0.550449       0.859120
                          4       1   12fy3              0.550449       0.384210
                          4       1   12fy2z             0.550449       0.859120
                          4       1   12fyz2             0.550449       0.859120
                          4       1   12fz3              0.550449       0.384210

                          5       1    2s                0.618189       0.496879

                          6       1    8px               0.759703       1.010986
                          6       1    8py               0.759703       1.010986
                          6       1    8pz               0.759703       1.010986

                          7       1    3s                1.823121       1.118206

                          8       1   11dx2              2.272834       6.924734
                          8       1   11dxy              2.272834      11.993991
                          8       1   11dxz              2.272834      11.993991
                          8       1   11dy2              2.272834       6.924734
                          8       1   11dyz              2.272834      11.993991
                          8       1   11dz2              2.272834       6.924734

                          9       1    4s                5.376710       2.516504

                         10       1    9px               8.010416      19.209185
                         10       1    9py               8.010416      19.209185
                         10       1    9pz               8.010416      19.209185

                         11       1    5s               15.856825       5.663335

                         12       1    6s               46.764327      12.745184

       Atomic covalent radius [Angstrom]:                                  0.820

       Atomic van der Waals radius [Angstrom]:                             1.920

     The atoms of this atomic kind are PAW atoms (GAPW):
       Hard Gaussian function radius:                                      1.512
       Rho0 radius:                                                        1.512
       Maximum GTO radius used for PAW projector construction:            24.566

     GAPW Soft Basis Set                                  aug-SZV-MOLOPT-ae_soft

       Number of orbital shell sets:                                           2
       Number of orbital shells:                                               6
       Number of primitive Cartesian functions:                                7
       Number of Cartesian basis functions:                                   15
       Number of spherical basis functions:                                   14
       Norm type:                                                              2

       Normalised Cartesian orbitals:

                        Set   Shell   Orbital            Exponent    Coefficient

                          1       1    1s                0.109280       0.032606
                                                         0.155613       0.000000
                                                         0.238409       0.144712
                                                         0.548949       0.113742
                                                         1.426820      -0.031435

                          1       2    2s                0.109280      -0.049098
                                                         0.155613      -0.119813
                                                         0.238409      -0.025283
                                                         0.548949       0.056653
                                                         1.426820       0.132404

                          1       3    2px               0.109280       0.009109
                                                         0.155613       0.000000
                                                         0.238409       0.101125
                                                         0.548949       0.281559
                                                         1.426820       0.386539
                          1       3    2py               0.109280       0.009109
                                                         0.155613       0.000000
                                                         0.238409       0.101125
                                                         0.548949       0.281559
                                                         1.426820       0.386539
                          1       3    2pz               0.109280       0.009109
                                                         0.155613       0.000000
                                                         0.238409       0.101125
                                                         0.548949       0.281559
                                                         1.426820       0.386539

                          1       4    3px               0.109280       0.062233
                                                         0.155613       0.035668
                                                         0.238409       0.015304
                                                         0.548949      -0.003054
                                                         1.426820       0.021875
                          1       4    3py               0.109280       0.062233
                                                         0.155613       0.035668
                                                         0.238409       0.015304
                                                         0.548949      -0.003054
                                                         1.426820       0.021875
                          1       4    3pz               0.109280       0.062233
                                                         0.155613       0.035668
                                                         0.238409       0.015304
                                                         0.548949      -0.003054
                                                         1.426820       0.021875

                          1       5    3dx2              0.109280       0.000986
                                                         0.155613       0.002022
                                                         0.238409       0.109458
                                                         0.548949       0.095099
                                                         1.426820       0.028232
                          1       5    3dxy              0.109280       0.001708
                                                         0.155613       0.003503
                                                         0.238409       0.189586
                                                         0.548949       0.164717
                                                         1.426820       0.048900
                          1       5    3dxz              0.109280       0.001708
                                                         0.155613       0.003503
                                                         0.238409       0.189586
                                                         0.548949       0.164717
                                                         1.426820       0.048900
                          1       5    3dy2              0.109280       0.000986
                                                         0.155613       0.002022
                                                         0.238409       0.109458
                                                         0.548949       0.095099
                                                         1.426820       0.028232
                          1       5    3dyz              0.109280       0.001708
                                                         0.155613       0.003503
                                                         0.238409       0.189586
                                                         0.548949       0.164717
                                                         1.426820       0.048900
                          1       5    3dz2              0.109280       0.000986
                                                         0.155613       0.002022
                                                         0.238409       0.109458
                                                         0.548949       0.095099
                                                         1.426820       0.028232

                          2       1    1s                3.462516       0.753460
                                                         1.426055       0.121219

     AE Potential information for                                            ALL

       Description:                                       All-electron potential
                                          Krack, Parrinello, PCCP 2, 2105 (2000)

       Gaussian exponent of the core charge distribution:               2.655410
       Electronic configuration (s p d ...):                           4   1   0

  2. Atomic kind: N                                     Number of atoms:       1

     Orbital Basis Set                                      aug-SZV-MOLOPT-ae-SR

       Number of orbital shell sets:                                           2
       Number of orbital shells:                                               6
       Number of primitive Cartesian functions:                                7
       Number of Cartesian basis functions:                                   15
       Number of spherical basis functions:                                   14
       Norm type:                                                              2

       Normalised Cartesian orbitals:

                        Set   Shell   Orbital            Exponent    Coefficient

                          1       1    1s                0.112012       0.000000
                                                         0.285714       0.194997
                                                         0.878497       0.258372
                                                         3.780456      -0.193164

                          1       2    2s                0.112012       0.083551
                                                         0.285714      -0.189186
                                                         0.878497      -0.469875
                                                         3.780456      -0.002085

                          1       3    2px               0.112012       0.000000
                                                         0.285714       0.116706
                                                         0.878497       0.736704
                                                         3.780456       1.171553
                          1       3    2py               0.112012       0.000000
                                                         0.285714       0.116706
                                                         0.878497       0.736704
                                                         3.780456       1.171553
                          1       3    2pz               0.112012       0.000000
                                                         0.285714       0.116706
                                                         0.878497       0.736704
                                                         3.780456       1.171553

                          1       4    3px               0.112012       0.141957
                                                         0.285714      -0.286713
                                                         0.878497       0.074784
                                                         3.780456       0.008085
                          1       4    3py               0.112012       0.141957
                                                         0.285714      -0.286713
                                                         0.878497       0.074784
                                                         3.780456       0.008085
                          1       4    3pz               0.112012       0.141957
                                                         0.285714      -0.286713
                                                         0.878497       0.074784
                                                         3.780456       0.008085

                          1       5    3dx2              0.112012      -0.000364
                                                         0.285714       0.186009
                                                         0.878497      -0.044751
                                                         3.780456       1.815169
                          1       5    3dxy              0.112012      -0.000630
                                                         0.285714       0.322177
                                                         0.878497      -0.077512
                                                         3.780456       3.143965
                          1       5    3dxz              0.112012      -0.000630
                                                         0.285714       0.322177
                                                         0.878497      -0.077512
                                                         3.780456       3.143965
                          1       5    3dy2              0.112012      -0.000364
                                                         0.285714       0.186009
                                                         0.878497      -0.044751
                                                         3.780456       1.815169
                          1       5    3dyz              0.112012      -0.000630
                                                         0.285714       0.322177
                                                         0.878497      -0.077512
                                                         3.780456       3.143965
                          1       5    3dz2              0.112012      -0.000364
                                                         0.285714       0.186009
                                                         0.878497      -0.044751
                                                         3.780456       1.815169

                          2       1    1s               99.106169       3.454881
                                                        18.052312       3.341410
                                                         4.885660       1.041372

     RI Auxiliary Basis Set             RI_aug-SZV-MOLOPT-ae-SR_N_RI_036_s_p_d_f

       Number of orbital shell sets:                                          12
       Number of orbital shells:                                              12
       Number of primitive Cartesian functions:                               12
       Number of Cartesian basis functions:                                   42
       Number of spherical basis functions:                                   36
       Norm type:                                                              2

       Normalised Cartesian orbitals:

                        Set   Shell   Orbital            Exponent    Coefficient

                          1       1    1s                0.362114       0.332693

                          2       1    6px               0.499696       0.598857
                          2       1    6py               0.499696       0.598857
                          2       1    6pz               0.499696       0.598857

                          3       1    9dx2              0.588659       0.651135
                          3       1    9dxy              0.588659       1.127800
                          3       1    9dxz              0.588659       1.127800
                          3       1    9dy2              0.588659       0.651135
                          3       1    9dyz              0.588659       1.127800
                          3       1    9dz2              0.588659       0.651135

                          4       1    2s                0.631634       0.504963

                          5       1   12fx3              0.736605       0.740002
                          5       1   12fx2y             0.736605       1.654695
                          5       1   12fx2z             0.736605       1.654695
                          5       1   12fxy2             0.736605       1.654695
                          5       1   12fxyz             0.736605       2.866016
                          5       1   12fxz2             0.736605       1.654695
                          5       1   12fy3              0.736605       0.740002
                          5       1   12fy2z             0.736605       1.654695
                          5       1   12fyz2             0.736605       1.654695
                          5       1   12fz3              0.736605       0.740002

                          6       1    7px               0.883396       1.220771
                          6       1    7py               0.883396       1.220771
                          6       1    7pz               0.883396       1.220771

                          7       1   10dx2              1.153946       2.114628
                          7       1   10dxy              1.153946       3.662643
                          7       1   10dxz              1.153946       3.662643
                          7       1   10dy2              1.153946       2.114628
                          7       1   10dyz              1.153946       3.662643
                          7       1   10dz2              1.153946       2.114628

                          8       1    3s                2.978947       1.616059

                          9       1    8px               4.407746       9.103549
                          9       1    8py               4.407746       9.103549
                          9       1    8pz               4.407746       9.103549

                         10       1   11dx2              5.691883      34.522914
                         10       1   11dxy              5.691883      59.795442
                         10       1   11dxz              5.691883      59.795442
                         10       1   11dy2              5.691883      34.522914
                         10       1   11dyz              5.691883      59.795442
                         10       1   11dz2              5.691883      34.522914

                         11       1    4s               18.342052       6.316784

                         12       1    5s              106.308958      23.595951

       Atomic covalent radius [Angstrom]:                                  0.750

       Atomic van der Waals radius [Angstrom]:                             1.550

     The atoms of this atomic kind are PAW atoms (GAPW):
       Hard Gaussian function radius:                                      1.512
       Rho0 radius:                                                        1.512
       Maximum GTO radius used for PAW projector construction:            24.566

     GAPW Soft Basis Set                               aug-SZV-MOLOPT-ae-SR_soft

       Number of orbital shell sets:                                           2
       Number of orbital shells:                                               6
       Number of primitive Cartesian functions:                                4
       Number of Cartesian basis functions:                                   15
       Number of spherical basis functions:                                   14
       Norm type:                                                              2

       Normalised Cartesian orbitals:

                        Set   Shell   Orbital            Exponent    Coefficient

                          1       1    1s                0.112012       0.000000
                                                         0.285714       0.194997
                                                         0.878497       0.258372
                                                         3.780456      -0.193164

                          1       2    2s                0.112012       0.083551
                                                         0.285714      -0.189186
                                                         0.878497      -0.469875
                                                         3.780456      -0.002085

                          1       3    2px               0.112012       0.000000
                                                         0.285714       0.116706
                                                         0.878497       0.736704
                                                         3.780456       1.171553
                          1       3    2py               0.112012       0.000000
                                                         0.285714       0.116706
                                                         0.878497       0.736704
                                                         3.780456       1.171553
                          1       3    2pz               0.112012       0.000000
                                                         0.285714       0.116706
                                                         0.878497       0.736704
                                                         3.780456       1.171553

                          1       4    3px               0.112012       0.141957
                                                         0.285714      -0.286713
                                                         0.878497       0.074784
                                                         3.780456       0.008085
                          1       4    3py               0.112012       0.141957
                                                         0.285714      -0.286713
                                                         0.878497       0.074784
                                                         3.780456       0.008085
                          1       4    3pz               0.112012       0.141957
                                                         0.285714      -0.286713
                                                         0.878497       0.074784
                                                         3.780456       0.008085

                          1       5    3dx2              0.112012      -0.000364
                                                         0.285714       0.186009
                                                         0.878497      -0.044751
                                                         3.780456       1.815169
                          1       5    3dxy              0.112012      -0.000630
                                                         0.285714       0.322177
                                                         0.878497      -0.077512
                                                         3.780456       3.143965
                          1       5    3dxz              0.112012      -0.000630
                                                         0.285714       0.322177
                                                         0.878497      -0.077512
                                                         3.780456       3.143965
                          1       5    3dy2              0.112012      -0.000364
                                                         0.285714       0.186009
                                                         0.878497      -0.044751
                                                         3.780456       1.815169
                          1       5    3dyz              0.112012      -0.000630
                                                         0.285714       0.322177
                                                         0.878497      -0.077512
                                                         3.780456       3.143965
                          1       5    3dz2              0.112012      -0.000364
                                                         0.285714       0.186009
                                                         0.878497      -0.044751
                                                         3.780456       1.815169

                          2       1    1s         

     AE Potential information for                                            ALL

       Description:                                       All-electron potential
                                          Krack, Parrinello, PCCP 2, 2105 (2000)

       Gaussian exponent of the core charge distribution:               5.979100
       Electronic configuration (s p d ...):                           4   3   0


 MOLECULE KIND INFORMATION


 All atoms are their own molecule, skipping detailed information


 TOTAL NUMBERS AND MAXIMUM NUMBERS

  Total number of            - Atomic kinds:                                   2
                             - Atoms:                                          2
                             - Shell sets:                                     4
                             - Shells:                                        12
                             - Primitive Cartesian functions:                 20
                             - Cartesian basis functions:                     30
                             - Spherical basis functions:                     28

  Maximum angular momentum of the orbital basis functions:                     2


 MODULE QUICKSTEP: ATOMIC COORDINATES IN ANGSTROM

   Atom Kind Element         X             Y             Z       Z(eff)     Mass
      1    1 B     5     14.358500     15.000000     15.000000   5.0000  10.8110
      2    2 N     7     15.641500     15.000000     15.000000   7.0000  14.0067



 SCF PARAMETERS         Density guess:                                    ATOMIC
                        --------------------------------------------------------
                        max_scf:                                             500
                        max_scf_history:                                       0
                        max_diis:                                              4
                        --------------------------------------------------------
                        eps_scf:                                        1.00E-06
                        eps_scf_history:                                0.00E+00
                        eps_diis:                                       1.00E-01
                        eps_eigval:                                     1.00E-05
                        --------------------------------------------------------
                        level_shift [a.u.]:                             0.000000
                        added MOs                                        22    0
                        --------------------------------------------------------
                        Mixing method:                            BROYDEN_MIXING
                                                charge density mixing in g-space
                        --------------------------------------------------------
                        No outer SCF

 PW_GRID| Information for grid number                                          1
 PW_GRID| Grid distributed over                                    24 processors
 PW_GRID| Real space group dimensions                                    24    1
 PW_GRID| the grid is blocked:                                                NO
 PW_GRID| Cutoff [a.u.]                                                    250.0
 PW_GRID| spherical cutoff:                                                   NO
 PW_GRID|   Bounds   1           -202     202                Points:         405
 PW_GRID|   Bounds   2           -202     202                Points:         405
 PW_GRID|   Bounds   3           -202     202                Points:         405
 PW_GRID| Volume element (a.u.^3)  0.2743E-02     Volume (a.u.^3)    182205.0337
 PW_GRID| Grid span                                                    FULLSPACE
 PW_GRID|   Distribution                         Average         Max         Min
 PW_GRID|   G-Vectors                          2767921.9     2768175     2767770
 PW_GRID|   G-Rays                                6834.4        6835        6834
 PW_GRID|   Real Space Points                  2767921.9     2788425     2624400

 PW_GRID| Information for grid number                                          2
 PW_GRID| Number of the reference grid                                         1
 PW_GRID| Grid distributed over                                    24 processors
 PW_GRID| Real space group dimensions                                    24    1
 PW_GRID| the grid is blocked:                                                NO
 PW_GRID| Cutoff [a.u.]                                                     83.3
 PW_GRID| spherical cutoff:                                                   NO
 PW_GRID|   Bounds   1           -120     119                Points:         240
 PW_GRID|   Bounds   2           -120     119                Points:         240
 PW_GRID|   Bounds   3           -120     119                Points:         240
 PW_GRID| Volume element (a.u.^3)  0.1318E-01     Volume (a.u.^3)    182205.0337
 PW_GRID| Grid span                                                    FULLSPACE
 PW_GRID|   Distribution                         Average         Max         Min
 PW_GRID|   G-Vectors                           576000.0      576240      575760
 PW_GRID|   G-Rays                                2400.0        2401        2399
 PW_GRID|   Real Space Points                   576000.0      576000      576000

 PW_GRID| Information for grid number                                          3
 PW_GRID| Number of the reference grid                                         1
 PW_GRID| Grid distributed over                                    24 processors
 PW_GRID| Real space group dimensions                                    24    1
 PW_GRID| the grid is blocked:                                                NO
 PW_GRID| Cutoff [a.u.]                                                     27.8
 PW_GRID| spherical cutoff:                                                   NO
 PW_GRID|   Bounds   1            -67      67                Points:         135
 PW_GRID|   Bounds   2            -67      67                Points:         135
 PW_GRID|   Bounds   3            -67      67                Points:         135
 PW_GRID| Volume element (a.u.^3)  0.7406E-01     Volume (a.u.^3)    182205.0337
 PW_GRID| Grid span                                                    FULLSPACE
 PW_GRID|   Distribution                         Average         Max         Min
 PW_GRID|   G-Vectors                           102515.6      102735      102330
 PW_GRID|   G-Rays                                 759.4         761         758
 PW_GRID|   Real Space Points                   102515.6      109350       91125

 PW_GRID| Information for grid number                                          4
 PW_GRID| Number of the reference grid                                         1
 PW_GRID| Grid distributed over                                    24 processors
 PW_GRID| Real space group dimensions                                    24    1
 PW_GRID| the grid is blocked:                                                NO
 PW_GRID| Cutoff [a.u.]                                                      9.3
 PW_GRID| spherical cutoff:                                                   NO
 PW_GRID|   Bounds   1            -40      39                Points:          80
 PW_GRID|   Bounds   2            -40      39                Points:          80
 PW_GRID|   Bounds   3            -40      39                Points:          80
 PW_GRID| Volume element (a.u.^3)  0.3559         Volume (a.u.^3)    182205.0337
 PW_GRID| Grid span                                                    FULLSPACE
 PW_GRID|   Distribution                         Average         Max         Min
 PW_GRID|   G-Vectors                            21333.3       21360       21280
 PW_GRID|   G-Rays                                 266.7         267         266
 PW_GRID|   Real Space Points                    21333.3       25600       19200

 POISSON| Solver                                                         WAVELET
 POISSON| Wavelet| Scaling function                                           40
 POISSON| Periodicity                                                       NONE

 RS_GRID| Information for grid number                                          1
 RS_GRID|   Bounds   1           -202     202                Points:         405
 RS_GRID|   Bounds   2           -202     202                Points:         405
 RS_GRID|   Bounds   3           -202     202                Points:         405
 RS_GRID| Real space distribution over                                  4 groups
 RS_GRID| Real space distribution along direction                              2
 RS_GRID| Border size                                                         35
 RS_GRID| Real space distribution over                                  6 groups
 RS_GRID| Real space distribution along direction                              3
 RS_GRID| Border size                                                         35
 RS_GRID|   Distribution                         Average         Max         Min
 RS_GRID|   Planes                                 171.2         172         171
 RS_GRID|   Distribution                         Average         Max         Min
 RS_GRID|   Planes                                 137.5         138         137

 RS_GRID| Information for grid number                                          2
 RS_GRID|   Bounds   1           -120     119                Points:         240
 RS_GRID|   Bounds   2           -120     119                Points:         240
 RS_GRID|   Bounds   3           -120     119                Points:         240
 RS_GRID| Real space distribution over                                  4 groups
 RS_GRID| Real space distribution along direction                              2
 RS_GRID| Border size                                                         37
 RS_GRID| Real space distribution over                                  6 groups
 RS_GRID| Real space distribution along direction                              3
 RS_GRID| Border size                                                         37
 RS_GRID|   Distribution                         Average         Max         Min
 RS_GRID|   Planes                                 134.0         134         134
 RS_GRID|   Distribution                         Average         Max         Min
 RS_GRID|   Planes                                 114.0         114         114

 RS_GRID| Information for grid number                                          3
 RS_GRID|   Bounds   1            -67      67                Points:         135
 RS_GRID|   Bounds   2            -67      67                Points:         135
 RS_GRID|   Bounds   3            -67      67                Points:         135
 RS_GRID| Real space fully replicated
 RS_GRID| Group size                                                           1

 RS_GRID| Information for grid number                                          4
 RS_GRID|   Bounds   1            -40      39                Points:          80
 RS_GRID|   Bounds   2            -40      39                Points:          80
 RS_GRID|   Bounds   3            -40      39                Points:          80
 RS_GRID| Real space fully replicated
 RS_GRID| Group size                                                           1

  HFX_INFO| Replica ID:                                                        1
  HFX_INFO| FRACTION:                                               0.2500000000
  HFX_INFO| Interaction Potential:                                       COULOMB
  HFX_INFO| EPS_SCHWARZ:                                                 1.0E-10
  HFX_INFO| EPS_SCHWARZ_FORCES                                           1.0E-08
  HFX_INFO| EPS_STORAGE_SCALING:                                         1.0E+00
  HFX_INFO| NBINS:                                                            64
  HFX_INFO| BLOCK_SIZE:                                                        1
  HFX_INFO| Number of periodic shells considered:                           NONE
  HFX_INFO| Number of periodic cells considered:                            NONE

 
 RI-RPA| using GPW style
 

 OVERLAP MATRIX CONDITION NUMBER
 1-Norm Condition Number (Estimate)
   CN : |A|*|A^-1|:  4.761E+000 *  1.958E+002   = 9.320E+002  Log(1-CN):  2.9694
 1-Norm and 2-Norm Condition Numbers using Diagonalization
   CN : |A|*|A^-1|:  4.761E+000 *  1.958E+002   = 9.320E+002  Log(1-CN):  2.9694
   CN : max/min ev:  3.209E+000 /  8.722E-003   = 3.680E+002  Log(2-CN):  2.5658

 Number of electrons:                                                         12
 Number of occupied orbitals:                                                  6
 Number of molecular orbitals:                                                28

 Number of orbital functions:                                                 28
 Number of independent orbital functions:                                     28

 Extrapolation method: initial_guess

 Atomic guess: The first density matrix is obtained in terms of atomic orbitals
               and electronic configurations assigned to each atomic kind

 Guess for atomic kind: B

 Electronic structure
    Total number of core electrons                                          0.00
    Total number of valence electrons                                       5.00
    Total number of electrons                                               5.00
    Multiplicity                                                   not specified
    S      2.00  2.00
    P      1.00


 *******************************************************************************
                  Iteration          Convergence                     Energy [au]
 *******************************************************************************
                          1        0.612489E-01                 -24.304439508901
                          2        0.220484E-01                 -24.305945213911
                          3        0.367076E-03                 -24.306247196960
                          4        0.456899E-05                 -24.306247340970
                          5        0.241868E-07                 -24.306247340986

 Energy components [Hartree]           Total Energy ::          -24.306247340986
                                        Band Energy ::          -13.825803348850
                                     Kinetic Energy ::           23.970530113188
                                   Potential Energy ::          -48.276777454174
                                      Virial (-V/T) ::            2.014005415242
                                        Core Energy ::          -32.361048727638
                                          XC Energy ::           -3.546375173816
                                     Coulomb Energy ::           11.601176560468

 Orbital energies  State     L     Occupation   Energy[a.u.]          Energy[eV]

                       1     0          2.000      -6.531739         -177.737651
                       2     0          2.000      -0.324835           -8.839199

                       1     1          1.000      -0.112657           -3.065543


 Total Electron Density at R=0:                                        58.671969

 Guess for atomic kind: N

 Electronic structure
    Total number of core electrons                                          0.00
    Total number of valence electrons                                       7.00
    Total number of electrons                                               7.00
    Multiplicity                                                   not specified
    S      2.00  2.00
    P      3.00


 *******************************************************************************
                  Iteration          Convergence                     Energy [au]
 *******************************************************************************
                          1        0.159909                     -53.340877683251
                          2        0.769146E-01                 -53.353877926770
                          3        0.463278E-03                 -53.358451509292
                          4        0.156014E-03                 -53.358451645833
                          5        0.102251E-04                 -53.358451658533
                          6        0.178265E-08                 -53.358451658590

 Energy components [Hartree]           Total Energy ::          -53.358451658590
                                        Band Energy ::          -29.695765597812
                                     Kinetic Energy ::           52.385975587247
                                   Potential Energy ::         -105.744427245837
                                      Virial (-V/T) ::            2.018563672060
                                        Core Energy ::          -72.851122194822
                                          XC Energy ::           -6.109149652554
                                     Coulomb Energy ::           25.601820188786

 Orbital energies  State     L     Occupation   Energy[a.u.]          Energy[eV]

                       1     0          2.000     -13.845221         -376.747634
                       2     0          2.000      -0.658428          -17.916731

                       1     1          3.000      -0.229489           -6.244716


 Total Electron Density at R=0:                                       126.344533
 Re-scaling the density matrix to get the right number of electrons
                  # Electrons              Trace(P)               Scaling factor
                           12                12.000                        1.000


 SCF WAVEFUNCTION OPTIMIZATION

  Step     Update method      Time    Convergence         Total energy    Change
  ------------------------------------------------------------------------------

  HFX_MEM_INFO| Est. max. program size before HFX [MiB]:                    2155
  HFX_MEM_INFO| Number of cart. primitive ERI's calculated:             82458356
  HFX_MEM_INFO| Number of sph. ERI's calculated:                          230496
  HFX_MEM_INFO| Number of sph. ERI's stored in-core:                      230496
  HFX_MEM_INFO| Number of sph. ERI's stored on disk:                           0
  HFX_MEM_INFO| Number of sph. ERI's calculated on the fly:                    0
  HFX_MEM_INFO| Total memory consumption ERI's RAM [MiB]:                      2
  HFX_MEM_INFO| Whereof max-vals [MiB]:                                        1
  HFX_MEM_INFO| Total compression factor ERI's RAM:                         1.11
  HFX_MEM_INFO| Total memory consumption ERI's disk [MiB]:                     0
  HFX_MEM_INFO| Total compression factor ERI's disk:                        0.00
  HFX_MEM_INFO| Size of density/Fock matrix [MiB]:                             0
  HFX_MEM_INFO| Size of buffers [MiB]:                                         0
  HFX_MEM_INFO| Est. max. program size after HFX  [MiB]:                    2666

     1 NoMix/Diag. 0.10E+00    8.8     0.61096051       -78.7651476491 -7.88E+01
     2 Broy./Diag. 0.10E+00    4.8     0.12527408       -77.6174479468  1.15E+00
     3 Broy./Diag. 0.10E+00    4.9     0.18353002       -77.0703186456  5.47E-01
     4 Broy./Diag. 0.10E+00    4.9     0.27296110       -76.9341531432  1.36E-01
     5 Broy./Diag. 0.10E+00    4.9     0.22638250       -77.9672150413 -1.03E+00
     6 Broy./Diag. 0.10E+00    5.0     0.09285554       -78.4216564362 -4.54E-01
     7 Broy./Diag. 0.10E+00    5.1     0.04891191       -77.9136200362  5.08E-01
     8 Broy./Diag. 0.10E+00    5.1     0.28246655       -77.9447784014 -3.12E-02
     9 Broy./Diag. 0.10E+00    5.3     0.16242353       -78.7186927071 -7.74E-01
    10 Broy./Diag. 0.10E+00    5.4     0.17401444       -79.0188061468 -3.00E-01
    11 Broy./Diag. 0.10E+00    5.3     0.12390440       -79.3408958027 -3.22E-01
    12 Broy./Diag. 0.10E+00    5.4     0.10258266       -79.5259362241 -1.85E-01
    13 Broy./Diag. 0.10E+00    5.4     0.06950244       -79.6704337465 -1.44E-01
    14 Broy./Diag. 0.10E+00    5.4     0.02408169       -79.7209496890 -5.05E-02
    15 Broy./Diag. 0.10E+00    5.5     0.06703362       -79.7157598448  5.19E-03
    16 Broy./Diag. 0.10E+00    5.5     0.09404164       -79.5539747441  1.62E-01
    17 Broy./Diag. 0.10E+00    5.4     0.08343532       -79.3395541098  2.14E-01
    18 Broy./Diag. 0.10E+00    5.4     0.08446907       -79.1793780477  1.60E-01
    19 Broy./Diag. 0.10E+00    5.4     0.13261709       -79.0035433845  1.76E-01
    20 Broy./Diag. 0.10E+00    5.4     0.16321275       -78.7376159540  2.66E-01
    21 Broy./Diag. 0.10E+00    5.4     0.12049292       -78.4709237609  2.67E-01
    22 Broy./Diag. 0.10E+00    5.3     0.08189759       -78.3104957266  1.60E-01
    23 Broy./Diag. 0.10E+00    5.3     0.05834519       -78.1938085574  1.17E-01
    24 Broy./Diag. 0.10E+00    5.3     0.03054413       -78.1050464999  8.88E-02
    25 Broy./Diag. 0.10E+00    5.4     0.02200460       -78.0634216865  4.16E-02
    26 Broy./Diag. 0.10E+00    5.4     0.01254585       -78.0306184138  3.28E-02
    27 Broy./Diag. 0.10E+00    5.4     0.01294531       -78.0721981594 -4.16E-02
    28 Broy./Diag. 0.10E+00    5.6     0.00684184       -78.1071226359 -3.49E-02
    29 Broy./Diag. 0.10E+00    5.5     0.02852736       -78.0710186346  3.61E-02
    30 Broy./Diag. 0.10E+00    5.4     0.01921059       -77.9836551551  8.74E-02
    31 Broy./Diag. 0.10E+00    5.4     0.02372382       -77.9466411305  3.70E-02
    32 Broy./Diag. 0.10E+00    5.4     0.08888015       -78.0181390158 -7.15E-02
    33 Broy./Diag. 0.10E+00    5.4     0.17017047       -78.2742668717 -2.56E-01
    34 Broy./Diag. 0.10E+00    5.3     0.06110947       -78.6298233990 -3.56E-01
    35 Broy./Diag. 0.10E+00    5.4     0.09197266       -78.6596252440 -2.98E-02
    36 Broy./Diag. 0.10E+00    5.4     0.06213748       -78.3821928570  2.77E-01
    37 Broy./Diag. 0.10E+00    5.5     0.03595400       -78.2498290268  1.32E-01
    38 Broy./Diag. 0.10E+00    5.3     0.02502174       -78.1897190825  6.01E-02
    39 Broy./Diag. 0.10E+00    5.3     0.01255452       -78.1620710795  2.76E-02
    40 Broy./Diag. 0.10E+00    5.3     0.03059629       -78.2200692669 -5.80E-02
    41 Broy./Diag. 0.10E+00    5.3     0.02146295       -78.3031448242 -8.31E-02
    42 Broy./Diag. 0.10E+00    5.3     0.01482544       -78.3423491281 -3.92E-02
    43 Broy./Diag. 0.10E+00    5.4     0.03012407       -78.3574101585 -1.51E-02
    44 Broy./Diag. 0.10E+00    5.5     0.02411871       -78.4102465544 -5.28E-02
    45 Broy./Diag. 0.10E+00    5.5     0.00555593       -78.4448250667 -3.46E-02
    46 Broy./Diag. 0.10E+00    5.5     0.02109996       -78.4364144453  8.41E-03
    47 Broy./Diag. 0.10E+00    5.4     0.00314216       -78.3838425196  5.26E-02
    48 Broy./Diag. 0.10E+00    5.4     0.01766086       -78.3773844373  6.46E-03
    49 Broy./Diag. 0.10E+00    5.4     0.00383632       -78.3370488702  4.03E-02
    50 Broy./Diag. 0.10E+00    5.4     0.02041865       -78.3575452009 -2.05E-02
    51 Broy./Diag. 0.10E+00    5.4     0.07320891       -78.4455940184 -8.80E-02
    52 Broy./Diag. 0.10E+00    5.3     0.05600348       -78.6223976686 -1.77E-01
    53 Broy./Diag. 0.10E+00    5.3     0.02584735       -78.7018431989 -7.94E-02
    54 Broy./Diag. 0.10E+00    5.3     0.05041602       -78.6093521640  9.25E-02
    55 Broy./Diag. 0.10E+00    5.3     0.02736183       -78.4946349057  1.15E-01
    56 Broy./Diag. 0.10E+00    5.4     0.03492458       -78.4474885070  4.71E-02
    57 Broy./Diag. 0.10E+00    5.4     0.02731926       -78.3834241116  6.41E-02
    58 Broy./Diag. 0.10E+00    5.3     0.02258263       -78.3374588693  4.60E-02
    59 Broy./Diag. 0.10E+00    5.4     0.00965379       -78.3032253964  3.42E-02
    60 Broy./Diag. 0.10E+00    5.5     0.02066426       -78.2874299873  1.58E-02
    61 Broy./Diag. 0.10E+00    5.5     0.01060196       -78.2423537352  4.51E-02
    62 Broy./Diag. 0.10E+00    5.5     0.02577569       -78.2234762765  1.89E-02
    63 Broy./Diag. 0.10E+00    5.4     0.01196790       -78.1625569434  6.09E-02
    64 Broy./Diag. 0.10E+00    5.4     0.03044694       -78.1681366383 -5.58E-03
    65 Broy./Diag. 0.10E+00    5.4     0.03951226       -78.2779955275 -1.10E-01
    66 Broy./Diag. 0.10E+00    5.4     0.02853012       -78.3755192570 -9.75E-02
    67 Broy./Diag. 0.10E+00    5.4     0.01531317       -78.4102904967 -3.48E-02
    68 Broy./Diag. 0.10E+00    5.3     0.02320923       -78.3698135186  4.05E-02
    69 Broy./Diag. 0.10E+00    5.3     0.04465942       -78.4204270923 -5.06E-02
    70 Broy./Diag. 0.10E+00    5.3     0.03142601       -78.5094755410 -8.90E-02
    71 Broy./Diag. 0.10E+00    5.3     0.00710708       -78.5512578564 -4.18E-02
    72 Broy./Diag. 0.10E+00    5.3     0.00741449       -78.5291375473  2.21E-02
    73 Broy./Diag. 0.10E+00    5.4     0.00311958       -78.5053827766  2.38E-02
    74 Broy./Diag. 0.10E+00    5.3     0.01157651       -78.4974009411  7.98E-03
    75 Broy./Diag. 0.10E+00    5.3     0.00363105       -78.4769966516  2.04E-02
    76 Broy./Diag. 0.10E+00    5.4     0.01014228       -78.4734221211  3.57E-03
    77 Broy./Diag. 0.10E+00    5.5     0.00551487       -78.4550524419  1.84E-02
    78 Broy./Diag. 0.10E+00    5.5     0.01134113       -78.4456454110  9.41E-03
    79 Broy./Diag. 0.10E+00    5.7     0.00615698       -78.4256439687  2.00E-02
    80 Broy./Diag. 0.10E+00    5.4     0.00913989       -78.4245771128  1.07E-03
    81 Broy./Diag. 0.10E+00    5.4     0.02946003       -78.4593283982 -3.48E-02
    82 Broy./Diag. 0.10E+00    5.5     0.04607898       -78.5323874442 -7.31E-02
    83 Broy./Diag. 0.10E+00    5.4     0.04082343       -78.6250493760 -9.27E-02
    84 Broy./Diag. 0.10E+00    5.3     0.02861062       -78.6903626960 -6.53E-02
    85 Broy./Diag. 0.10E+00    5.3     0.03171614       -78.7297607940 -3.94E-02
    86 Broy./Diag. 0.10E+00    5.4     0.02407099       -78.7764257038 -4.67E-02
    87 Broy./Diag. 0.10E+00    5.4     0.02350545       -78.8072776746 -3.09E-02
    88 Broy./Diag. 0.10E+00    5.4     0.01851319       -78.8375187001 -3.02E-02
    89 Broy./Diag. 0.10E+00    5.4     0.01862211       -78.8605093044 -2.30E-02
    90 Broy./Diag. 0.10E+00    5.3     0.02353546       -78.8872215578 -2.67E-02
    91 Broy./Diag. 0.10E+00    5.5     0.02995325       -78.9258741884 -3.87E-02
    92 Broy./Diag. 0.10E+00    5.5     0.02914383       -78.9738404651 -4.80E-02
    93 Broy./Diag. 0.10E+00    5.6     0.01610884       -79.0119721214 -3.81E-02
    94 Broy./Diag. 0.10E+00    5.5     0.00648672       -79.0207537174 -8.78E-03
    95 Broy./Diag. 0.10E+00    5.4     0.00721644       -79.0094148138  1.13E-02
    96 Broy./Diag. 0.10E+00    5.5     0.00762308       -78.9955771946  1.38E-02
    97 Broy./Diag. 0.10E+00    5.4     0.00226562       -79.0190945205 -2.35E-02
    98 Broy./Diag. 0.10E+00    5.4     0.03076831       -79.0199917130 -8.97E-04
    99 Broy./Diag. 0.10E+00    5.3     0.05459911       -78.9467022658  7.33E-02
   100 Broy./Diag. 0.10E+00    5.3     0.05814636       -78.8424920106  1.04E-01
   101 Broy./Diag. 0.10E+00    5.3     0.04175564       -78.7545226726  8.80E-02
   102 Broy./Diag. 0.10E+00    5.4     0.02315744       -78.7084919868  4.60E-02
   103 Broy./Diag. 0.10E+00    5.4     0.01446808       -78.6952775450  1.32E-02
   104 Broy./Diag. 0.10E+00    5.3     0.01676977       -78.6871774809  8.10E-03
   105 Broy./Diag. 0.10E+00    5.4     0.01783298       -78.6609033873  2.63E-02
   106 Broy./Diag. 0.10E+00    5.4     0.01439007       -78.6292149718  3.17E-02
   107 Broy./Diag. 0.10E+00    5.3     0.00919833       -78.6077409371  2.15E-02
   108 Broy./Diag. 0.10E+00    5.5     0.00627401       -78.5973381074  1.04E-02
   109 Broy./Diag. 0.10E+00    5.5     0.00768482       -78.5895185905  7.82E-03
   110 Broy./Diag. 0.10E+00    5.5     0.00635449       -78.5781491063  1.14E-02
   111 Broy./Diag. 0.10E+00    5.4     0.00649245       -78.5675439426  1.06E-02
   112 Broy./Diag. 0.10E+00    5.5     0.00546665       -78.5559526787  1.16E-02
   113 Broy./Diag. 0.10E+00    5.4     0.00444670       -78.5470228628  8.93E-03
   114 Broy./Diag. 0.10E+00    5.4     0.00353663       -78.5405176003  6.51E-03
   115 Broy./Diag. 0.10E+00    5.4     0.00372514       -78.5362560438  4.26E-03
   116 Broy./Diag. 0.10E+00    5.3     0.00131650       -78.5322239495  4.03E-03
   117 Broy./Diag. 0.10E+00    5.3     0.00071715       -78.5359067251 -3.68E-03
   118 Broy./Diag. 0.10E+00    5.4     0.00191691       -78.5365144448 -6.08E-04
   119 Broy./Diag. 0.10E+00    5.4     0.00432682       -78.5341713818  2.34E-03
   120 Broy./Diag. 0.10E+00    5.3     0.01492310       -78.5457130467 -1.15E-02
   121 Broy./Diag. 0.10E+00    5.4     0.01598384       -78.5751132256 -2.94E-02
   122 Broy./Diag. 0.10E+00    5.3     0.01164146       -78.6002998042 -2.52E-02
[...]
   418 Broy./Diag. 0.10E+00    5.4     0.03504919       -79.4340879003 -4.29E-02
   419 Broy./Diag. 0.10E+00    5.4     0.11751238       -79.3698196294  6.43E-02
   420 Broy./Diag. 0.10E+00    5.5     0.15205626       -79.1105513804  2.59E-01
   421 Broy./Diag. 0.10E+00    5.5     0.11440826       -78.7952835972  3.15E-01
   422 Broy./Diag. 0.10E+00    5.4     0.13616822       -78.4562432278  3.39E-01
   423 Broy./Diag. 0.10E+00    5.4     0.19354375       -78.0911742649  3.65E-01
   424 Broy./Diag. 0.10E+00    5.4     0.25403603       -77.7692367697  3.22E-01
   425 Broy./Diag. 0.10E+00    5.4     0.26055782       -78.5061400142 -7.37E-01
   426 Broy./Diag. 0.10E+00    5.4     0.11788515       -79.1111348380 -6.05E-01
   427 Broy./Diag. 0.10E+00    5.4     0.08565417       -79.1444100217 -3.33E-02
   428 Broy./Diag. 0.10E+00    5.3     0.08266902       -79.1299480072  1.45E-02
   429 Broy./Diag. 0.10E+00    5.4     0.07235831       -79.0525588726  7.74E-02
   430 Broy./Diag. 0.10E+00    5.3     0.05133235       -78.9831471044  6.94E-02
   431 Broy./Diag. 0.10E+00    5.4     0.04316946       -78.8389341991  1.44E-01
   432 Broy./Diag. 0.10E+00    5.5     0.13797892       -78.6806876154  1.58E-01
   433 Broy./Diag. 0.10E+00    5.4     0.37195810       -78.1962195722  4.84E-01
   434 Broy./Diag. 0.10E+00    5.5     0.33235931       -77.6312395175  5.65E-01
   435 Broy./Diag. 0.10E+00    5.5     0.12084000       -78.5873909869 -9.56E-01
   436 Broy./Diag. 0.10E+00    5.5     0.09426768       -78.8654502047 -2.78E-01
   437 Broy./Diag. 0.10E+00    5.5     0.06810901       -79.0220670662 -1.57E-01
   438 Broy./Diag. 0.10E+00    5.4     0.08220765       -78.8992367979  1.23E-01
   439 Broy./Diag. 0.10E+00    5.4     0.10938709       -78.9434599060 -4.42E-02
   440 Broy./Diag. 0.10E+00    5.4     0.30160112       -79.2944180846 -3.51E-01
   441 Broy./Diag. 0.10E+00    5.4     0.13114994       -79.9919343037 -6.98E-01
   442 Broy./Diag. 0.10E+00    5.4     0.22966560       -79.5912115927  4.01E-01
   443 Broy./Diag. 0.10E+00    5.3     0.13642932       -79.0105606475  5.81E-01
   444 Broy./Diag. 0.10E+00    5.4     0.84740608       -78.5365842332  4.74E-01
   445 Broy./Diag. 0.10E+00    5.4     0.18960460       -76.8734704618  1.66E+00
   446 Broy./Diag. 0.10E+00    5.3     0.55188096       -77.5882139839 -7.15E-01
   447 Broy./Diag. 0.10E+00    5.3     0.14558431       -79.0409456886 -1.45E+00
   448 Broy./Diag. 0.10E+00    5.4     0.23757688       -79.2493672629 -2.08E-01
   449 Broy./Diag. 0.10E+00    5.5     0.15694095       -79.8134570960 -5.64E-01
   450 Broy./Diag. 0.10E+00    5.5     0.08791138       -80.0461665131 -2.33E-01
   451 Broy./Diag. 0.10E+00    5.6     0.03454591       -80.1568734572 -1.11E-01
   452 Broy./Diag. 0.10E+00    5.4     0.14067400       -80.1384864949  1.84E-02
   453 Broy./Diag. 0.10E+00    5.4     0.05569654       -79.8204201620  3.18E-01
   454 Broy./Diag. 0.10E+00    5.4     0.04237178       -79.7086893000  1.12E-01
   455 Broy./Diag. 0.10E+00    5.5     0.08385350       -79.5579742321  1.51E-01
   456 Broy./Diag. 0.10E+00    5.6     0.11223280       -79.2851320915  2.73E-01
   457 Broy./Diag. 0.10E+00    5.4     0.05332404       -79.0010916047  2.84E-01
   458 Broy./Diag. 0.10E+00    5.3     0.10725876       -78.9504152412  5.07E-02
   459 Broy./Diag. 0.10E+00    5.4     0.21943058       -78.7596148622  1.91E-01
   460 Broy./Diag. 0.10E+00    5.3     0.22484341       -78.3518125376  4.08E-01
   461 Broy./Diag. 0.10E+00    5.3     0.03825320       -77.9739734678  3.78E-01
   462 Broy./Diag. 0.10E+00    5.4     0.20543587       -78.1290486596 -1.55E-01
   463 Broy./Diag. 0.10E+00    5.4     0.10244241       -78.6661401797 -5.37E-01
   464 Broy./Diag. 0.10E+00    5.5     0.08369181       -78.8466943030 -1.81E-01
   465 Broy./Diag. 0.10E+00    5.5     0.08103662       -78.9690810116 -1.22E-01
   466 Broy./Diag. 0.10E+00    5.5     0.05055856       -79.0850848106 -1.16E-01
   467 Broy./Diag. 0.10E+00    5.5     0.03109544       -79.1291841535 -4.41E-02
   468 Broy./Diag. 0.10E+00    5.5     0.04676333       -79.1530218606 -2.38E-02
   469 Broy./Diag. 0.10E+00    5.4     0.05413630       -79.2417255903 -8.87E-02
   470 Broy./Diag. 0.10E+00    5.4     0.05759984       -79.3532044554 -1.11E-01
   471 Broy./Diag. 0.10E+00    5.4     0.08830526       -79.4816910851 -1.28E-01
   472 Broy./Diag. 0.10E+00    5.4     0.02397137       -79.6580044566 -1.76E-01
   473 Broy./Diag. 0.10E+00    5.4     0.03406599       -79.5913907129  6.66E-02
   474 Broy./Diag. 0.10E+00    5.4     0.01890608       -79.4897657298  1.02E-01
   475 Broy./Diag. 0.10E+00    5.4     0.01278026       -79.4942749924 -4.51E-03
   476 Broy./Diag. 0.10E+00    5.4     0.02366479       -79.5052109575 -1.09E-02
   477 Broy./Diag. 0.10E+00    5.3     0.04605439       -79.4431369840  6.21E-02
   478 Broy./Diag. 0.10E+00    5.4     0.08136278       -79.3397111707  1.03E-01
   479 Broy./Diag. 0.10E+00    5.6     0.15665209       -79.1748836093  1.65E-01
   480 Broy./Diag. 0.10E+00    5.5     0.18934447       -78.8715122697  3.03E-01
   481 Broy./Diag. 0.10E+00    5.5     0.11490307       -78.5125405599  3.59E-01
   482 Broy./Diag. 0.10E+00    5.4     0.05158972       -78.3284439230  1.84E-01
   483 Broy./Diag. 0.10E+00    5.4     0.04038539       -78.2996759630  2.88E-02
   484 Broy./Diag. 0.10E+00    5.4     0.03891097       -78.2530141103  4.67E-02
   485 Broy./Diag. 0.10E+00    5.5     0.03422018       -78.2233394298  2.97E-02
   486 Broy./Diag. 0.10E+00    5.4     0.02798198       -78.2189672081  4.37E-03
   487 Broy./Diag. 0.10E+00    5.4     0.02338381       -78.2397955313 -2.08E-02
   488 Broy./Diag. 0.10E+00    5.4     0.02879278       -78.2987627967 -5.90E-02
   489 Broy./Diag. 0.10E+00    5.4     0.01904576       -78.3560275645 -5.73E-02
   490 Broy./Diag. 0.10E+00    5.4     0.04956080       -78.3944427461 -3.84E-02
   491 Broy./Diag. 0.10E+00    5.5     0.06217622       -78.5156846869 -1.21E-01
   492 Broy./Diag. 0.10E+00    5.4     0.02340788       -78.6498484714 -1.34E-01
   493 Broy./Diag. 0.10E+00    5.4     0.04603086       -78.6983189287 -4.85E-02
   494 Broy./Diag. 0.10E+00    5.5     0.04673827       -78.8127712704 -1.14E-01
   495 Broy./Diag. 0.10E+00    5.6     0.06829033       -78.9455777822 -1.33E-01
   496 Broy./Diag. 0.10E+00    5.5     0.07787144       -79.1455950554 -2.00E-01
   497 Broy./Diag. 0.10E+00    5.5     0.06953542       -79.3174034702 -1.72E-01
   498 Broy./Diag. 0.10E+00    5.5     0.05642963       -79.3969636530 -7.96E-02
   499 Broy./Diag. 0.10E+00    5.4     0.04407648       -79.4313554345 -3.44E-02
   500 Broy./Diag. 0.10E+00    5.4     0.03974804       -79.4546890791 -2.33E-02

  Leaving inner SCF loop after reaching   500 steps.


  Electronic density on regular grids:         -8.6723884274        3.3276115726
  Core density on regular grids:               12.0000000000        0.0000000000
  Hard and soft densities (Lebedev):          -22.9545058416      -19.6131508134
  Total Rho_soft + Rho1_hard - Rho1_soft      -12.0137434556
  Total charge density (r-space):              -0.0137434556
  Total Rho_soft + Rho0_soft (g-space):        -0.0137435332

  Overlap energy of the core charge distribution:               0.00004803627663
  Self energy of the core charge distribution:                -64.05191455199152
  Core Hamiltonian energy:                                    -14.85725172160019
  Hartree energy:                                              17.05380387180487
  Exchange-correlation energy:                                 -2.96660709060057
  Hartree-Fock Exchange energy:                                -2.51218120140430

  GAPW| Exc from hard and soft atomic rho1:                    -5.08679467858420
  GAPW| local Eh = 1 center integrals:                         -7.03379174296470

  Total energy:                                               -79.45468907906400

 *******************************************************************************
 *   ___                                                                       *
 *  /   \                                                                      *
 * [ABORT]                                                                     *
 *  \___/     SCF run NOT converged. To continue the calculation regardless,   *
 *    |             please set the keyword IGNORE_CONVERGENCE_FAILURE.         *
 *  O/|                                                                        *
 * /| |                                                                        *
 * / \                                                            qs_scf.F:611 *
 *******************************************************************************


 ===== Routine Calling Stack ===== 

            3 scf_env_do_scf
            2 qs_energies
            1 CP2K

 *******************************************************************************
 *   ___                                                                       *
 *  /   \                                                                      *
 * [ABORT]                                                                     *
 *  \___/     SCF run NOT converged. To continue the calculation regardless,   *
 *    |             please set the keyword IGNORE_CONVERGENCE_FAILURE.         *
 *  O/|                                                                        *
 * /| |                                                                        *
 * / \                                                            qs_scf.F:611 *
 *******************************************************************************


 ===== Routine Calling Stack ===== 

            3 scf_env_do_scf
            2 qs_energies
            1 CP2K

 *******************************************************************************
 *   ___                                                                       *
 *  /   \                                                                      *
 * [ABORT]                                                                     *
 *  \___/     SCF run NOT converged. To continue the calculation regardless,   *
 *    |             please set the keyword IGNORE_CONVERGENCE_FAILURE.         *
 *  O/|                                                                        *
 * /| |                                                                        *
 * / \                                                            qs_scf.F:611 *
 *******************************************************************************


 ===== Routine Calling Stack ===== 

            3 scf_env_do_scf
            2 qs_energies
            1 CP2K

 *******************************************************************************
 *   ___                                                                       *
 *  /   \                                                                      *
 * [ABORT]                                                                     *
 *  \___/     SCF run NOT converged. To continue the calculation regardless,   *
 *    |             please set the keyword IGNORE_CONVERGENCE_FAILURE.         *
 *  O/|                                                                        *
 * /| |                                                                        *
 * / \                                                            qs_scf.F:611 *
 *******************************************************************************


 ===== Routine Calling Stack ===== 

            3 scf_env_do_scf
            2 qs_energies
            1 CP2K

 *******************************************************************************
 *   ___                                                                       *
 *  /   \                                                                      *
 * [ABORT]                                                                     *
 *  \___/     SCF run NOT converged. To continue the calculation regardless,   *
 *    |             please set the keyword IGNORE_CONVERGENCE_FAILURE.         *
 *  O/|                                                                        *
 * /| |                                                                        *
 * / \                                                            qs_scf.F:611 *
 *******************************************************************************


 ===== Routine Calling Stack ===== 

            3 scf_env_do_scf
            2 qs_energies
            1 CP2K

 *******************************************************************************
 *   ___                                                                       *
 *  /   \                                                                      *
 * [ABORT]                                                                     *
 *  \___/     SCF run NOT converged. To continue the calculation regardless,   *
 *    |             please set the keyword IGNORE_CONVERGENCE_FAILURE.         *
 *  O/|                                                                        *
 * /| |                                                                        *
 * / \                                                            qs_scf.F:611 *
 *******************************************************************************


 ===== Routine Calling Stack ===== 

            3 scf_env_do_scf
            2 qs_energies
            1 CP2K

 *******************************************************************************
 *   ___                                                                       *
 *  /   \                                                                      *
 * [ABORT]                                                                     *
 *  \___/     SCF run NOT converged. To continue the calculation regardless,   *
 *    |             please set the keyword IGNORE_CONVERGENCE_FAILURE.         *
 *  O/|                                                                        *
 * /| |                                                                        *
 * / \                                                            qs_scf.F:611 *
 *******************************************************************************


 ===== Routine Calling Stack ===== 

            3 scf_env_do_scf
            2 qs_energies
            1 CP2K

 *******************************************************************************
 *   ___                                                                       *
 *  /   \                                                                      *
 * [ABORT]                                                                     *
 *  \___/     SCF run NOT converged. To continue the calculation regardless,   *
 *    |             please set the keyword IGNORE_CONVERGENCE_FAILURE.         *
 *  O/|                                                                        *
 * /| |                                                                        *
 * / \                                                            qs_scf.F:611 *
 *******************************************************************************


 ===== Routine Calling Stack ===== 

            3 scf_env_do_scf
            2 qs_energies
            1 CP2K

 *******************************************************************************
 *   ___                                                                       *
 *  /   \                                                                      *
 * [ABORT]                                                                     *
 *  \___/     SCF run NOT converged. To continue the calculation regardless,   *
 *    |             please set the keyword IGNORE_CONVERGENCE_FAILURE.         *
 *  O/|                                                                        *
 * /| |                                                                        *
 * / \                                                            qs_scf.F:611 *
 *******************************************************************************


 ===== Routine Calling Stack ===== 

            3 scf_env_do_scf
            2 qs_energies
            1 CP2K

 *******************************************************************************
 *   ___                                                                       *
 *  /   \                                                                      *
 * [ABORT]                                                                     *
 *  \___/     SCF run NOT converged. To continue the calculation regardless,   *
 *    |             please set the keyword IGNORE_CONVERGENCE_FAILURE.         *
 *  O/|                                                                        *
 * /| |                                                                        *
 * / \                                                            qs_scf.F:611 *
 *******************************************************************************


 ===== Routine Calling Stack ===== 

            3 scf_env_do_scf
            2 qs_energies
            1 CP2K

 *******************************************************************************
 *   ___                                                                       *
 *  /   \                                                                      *
 * [ABORT]                                                                     *
 *  \___/     SCF run NOT converged. To continue the calculation regardless,   *
 *    |             please set the keyword IGNORE_CONVERGENCE_FAILURE.         *
 *  O/|                                                                        *
 * /| |                                                                        *
 * / \                                                            qs_scf.F:611 *
 *******************************************************************************


 ===== Routine Calling Stack ===== 

            3 scf_env_do_scf
            2 qs_energies
            1 CP2K

 *******************************************************************************
 *   ___                                                                       *
 *  /   \                                                                      *
 * [ABORT]                                                                     *
 *  \___/     SCF run NOT converged. To continue the calculation regardless,   *
 *    |             please set the keyword IGNORE_CONVERGENCE_FAILURE.         *
 *  O/|                                                                        *
 * /| |                                                                        *
 * / \                                                            qs_scf.F:611 *
 *******************************************************************************


 ===== Routine Calling Stack ===== 

            3 scf_env_do_scf
            2 qs_energies
            1 CP2K

 *******************************************************************************
 *   ___                                                                       *
 *  /   \                                                                      *
 * [ABORT]                                                                     *
 *  \___/     SCF run NOT converged. To continue the calculation regardless,   *
 *    |             please set the keyword IGNORE_CONVERGENCE_FAILURE.         *
 *  O/|                                                                        *
 * /| |                                                                        *
 * / \                                                            qs_scf.F:611 *
 *******************************************************************************


 ===== Routine Calling Stack ===== 

            3 scf_env_do_scf
            2 qs_energies
            1 CP2K
