 DBCSR| CPU Multiplication driver                                           BLAS (U)
 DBCSR| Multrec recursion limit                                              512 (U)
 DBCSR| Multiplication stack size                                           1000 (D)
 DBCSR| Maximum elements for images                                    UNLIMITED (U)
 DBCSR| Multiplicative factor virtual images                                   1 (U)
 DBCSR| Use multiplication densification                                       T (D)
 DBCSR| Multiplication size stacks                                             3 (U)
 DBCSR| Use memory pool for CPU allocation                                     F (U)
 DBCSR| Number of 3D layers                                               SINGLE (U)
 DBCSR| Use MPI memory allocation                                              F (U)
 DBCSR| Use RMA algorithm                                                      F (U)
 DBCSR| Use Communication thread                                               T (U)
 DBCSR| Communication thread load                                             75 (D)
 DBCSR| MPI: My process id                                                     0
 DBCSR| MPI: Number of processes                                              24
 DBCSR| OMP: Current number of threads                                         4
 DBCSR| OMP: Max number of threads                                             4
 DBCSR| Split modifier for TAS multiplication algorithm                  1.0E+00 (U)


  **** **** ******  **  PROGRAM STARTED AT               2025-03-08 02:00:12.020
 ***** ** ***  *** **   PROGRAM STARTED ON                          i02r09c05s12
 **    ****   ******    PROGRAM STARTED BY                               di38fab
 ***** **    ** ** **   PROGRAM PROCESS ID                               3944511
  **** **  *******  **  PROGRAM STARTED IN /hppfs/scratch/04/di38fab/05_MOL/W4-1
                                           1+ALK/bn/SZVSR

 CP2K| version string:                 CP2K version 2025.1 (Development Version)
 CP2K| source code revision number:                                  git:47877ba
 CP2K| cp2kflags: omp libint fftw3 libxc parallel scalapack max_contr=4         
 CP2K| is freely available from                            https://www.cp2k.org/
 CP2K| Program compiled at                          Thu Feb 20 16:00:34 CET 2025
 CP2K| Program compiled on                                               login04
 CP2K| Program compiled for                                        Supermuc-foss
 CP2K| Data directory path          /hppfs/work/pn36zo/di38fab/newcp2k/cp2k/data
 CP2K| Input file name                                                    GW.inp

 GLOBAL| Force Environment number                                              1
 GLOBAL| Basis set file name            /hppfs/scratch/04/di38fab/04_TMD/BASIS_A
 GLOBAL| Potential file name            /hppfs/work/pn36zo/di38fab/cp2k/data/ALL
 GLOBAL| MM Potential file name                                     MM_POTENTIAL
 GLOBAL| Coordinate file name                                      __STD_INPUT__
 GLOBAL| Method name                                                        CP2K
 GLOBAL| Project name                                                       MoS2
 GLOBAL| Run type                                                         ENERGY
 GLOBAL| FFT library                                                       FFTW3
 GLOBAL| Diagonalization library                                       ScaLAPACK
 GLOBAL| DGEMM library                                                      BLAS
 GLOBAL| Orthonormality check for eigenvectors                          DISABLED
 GLOBAL| Matrix multiplication library                                 ScaLAPACK
 GLOBAL| All-to-all communication in single precision                          F
 GLOBAL| FFTs using library dependent lengths                                  F
 GLOBAL| Grid backend                                                       AUTO
 GLOBAL| Global print level                                               MEDIUM
 GLOBAL| MPI I/O enabled                                                       T
 GLOBAL| Total number of message passing processes                            24
 GLOBAL| Number of threads for this process                                    4
 GLOBAL| This output is from process                                           0
 GLOBAL| OpenMP stack size per thread (OMP_STACKSIZE)                    default
 GLOBAL| CPU model name             Intel(R) Xeon(R) Platinum 8174 CPU @ 3.10GHz

 MEMORY| system memory details [Kb]
 MEMORY|                        rank 0           min           max       average
 MEMORY| MemTotal             98436664      98436664      98436708      98436686
 MEMORY| MemFree              83834444      83765032      83834444      83799738
 MEMORY| Buffers                     0             0             0             0
 MEMORY| Cached                2451456       2422776       2451456       2437116
 MEMORY| Slab                  1254488       1248956       1254488       1251722
 MEMORY| SReclaimable           273208        264808        273208        269008
 MEMORY| MemLikelyFree        86559108      86452616      86559108      86505862


 *** Fundamental physical constants (SI units) ***

 *** Literature: B. J. Mohr and B. N. Taylor,
 ***             CODATA recommended values of the fundamental physical
 ***             constants: 2006, Web Version 5.1
 ***             http://physics.nist.gov/constants

 Speed of light in vacuum [m/s]                             2.99792458000000E+08
 Magnetic constant or permeability of vacuum [N/A**2]       1.25663706143592E-06
 Electric constant or permittivity of vacuum [F/m]          8.85418781762039E-12
 Planck constant (h) [J*s]                                  6.62606896000000E-34
 Planck constant (h-bar) [J*s]                              1.05457162825177E-34
 Elementary charge [C]                                      1.60217648700000E-19
 Electron mass [kg]                                         9.10938215000000E-31
 Electron g factor [ ]                                     -2.00231930436220E+00
 Proton mass [kg]                                           1.67262163700000E-27
 Fine-structure constant                                    7.29735253760000E-03
 Rydberg constant [1/m]                                     1.09737315685270E+07
 Avogadro constant [1/mol]                                  6.02214179000000E+23
 Boltzmann constant [J/K]                                   1.38065040000000E-23
 Atomic mass unit [kg]                                      1.66053878200000E-27
 Bohr radius [m]                                            5.29177208590000E-11

 *** Conversion factors ***

 [u] -> [a.u.]                                              1.82288848426455E+03
 [Angstrom] -> [Bohr] = [a.u.]                              1.88972613288564E+00
 [a.u.] = [Bohr] -> [Angstrom]                              5.29177208590000E-01
 [a.u.] -> [s]                                              2.41888432650478E-17
 [a.u.] -> [fs]                                             2.41888432650478E-02
 [a.u.] -> [J]                                              4.35974393937059E-18
 [a.u.] -> [N]                                              8.23872205491840E-08
 [a.u.] -> [K]                                              3.15774647902944E+05
 [a.u.] -> [kJ/mol]                                         2.62549961709828E+03
 [a.u.] -> [kcal/mol]                                       6.27509468713739E+02
 [a.u.] -> [Pa]                                             2.94210107994716E+13
 [a.u.] -> [bar]                                            2.94210107994716E+08
 [a.u.] -> [atm]                                            2.90362800883016E+08
 [a.u.] -> [eV]                                             2.72113838565563E+01
 [a.u.] -> [Hz]                                             6.57968392072181E+15
 [a.u.] -> [1/cm] (wave numbers)                            2.19474631370540E+05
 [a.u./Bohr**2] -> [1/cm]                                   5.14048714338585E+03
 

 CELL_TOP| Volume [angstrom^3]:                                     27000.000000
 CELL_TOP| Vector a [angstrom    30.000     0.000     0.000   |a| =    30.000000
 CELL_TOP| Vector b [angstrom     0.000    30.000     0.000   |b| =    30.000000
 CELL_TOP| Vector c [angstrom     0.000     0.000    30.000   |c| =    30.000000
 CELL_TOP| Angle (b,c), alpha [degree]:                                90.000000
 CELL_TOP| Angle (a,c), beta  [degree]:                                90.000000
 CELL_TOP| Angle (a,b), gamma [degree]:                                90.000000
 CELL_TOP| Numerically orthorhombic:                                         YES
 CELL_TOP| Periodicity                                                      NONE

 GENERATE|  Preliminary Number of Bonds generated:                             0
 GENERATE|  Achieved consistency in connectivity generation.

 CELL| Volume [angstrom^3]:                                         27000.000000
 CELL| Vector a [angstrom]:      30.000     0.000     0.000   |a| =    30.000000
 CELL| Vector b [angstrom]:       0.000    30.000     0.000   |b| =    30.000000
 CELL| Vector c [angstrom]:       0.000     0.000    30.000   |c| =    30.000000
 CELL| Angle (b,c), alpha [degree]:                                    90.000000
 CELL| Angle (a,c), beta  [degree]:                                    90.000000
 CELL| Angle (a,b), gamma [degree]:                                    90.000000
 CELL| Numerically orthorhombic:                                             YES
 CELL| Periodicity                                                          NONE

 CELL_REF| Volume [angstrom^3]:                                     27000.000000
 CELL_REF| Vector a [angstrom    30.000     0.000     0.000   |a| =    30.000000
 CELL_REF| Vector b [angstrom     0.000    30.000     0.000   |b| =    30.000000
 CELL_REF| Vector c [angstrom     0.000     0.000    30.000   |c| =    30.000000
 CELL_REF| Angle (b,c), alpha [degree]:                                90.000000
 CELL_REF| Angle (a,c), beta  [degree]:                                90.000000
 CELL_REF| Angle (a,b), gamma [degree]:                                90.000000
 CELL_REF| Numerically orthorhombic:                                         YES
 CELL_REF| Periodicity                                                      NONE

 *******************************************************************************
 *******************************************************************************
 **                                                                           **
 **     #####                         ##              ##                      **
 **    ##   ##            ##          ##              ##                      **
 **   ##     ##                       ##            ######                    **
 **   ##     ##  ##   ##  ##   #####  ##  ##   ####   ##    #####    #####    **
 **   ##     ##  ##   ##  ##  ##      ## ##   ##      ##   ##   ##  ##   ##   **
 **   ##  ## ##  ##   ##  ##  ##      ####     ###    ##   ######   ######    **
 **    ##  ###   ##   ##  ##  ##      ## ##      ##   ##   ##       ##        **
 **     #######   #####   ##   #####  ##  ##  ####    ##    #####   ##        **
 **           ##                                                    ##        **
 **                                                                           **
 **                                                ... make the atoms dance   **
 **                                                                           **
 **            Copyright (C) by CP2K developers group (2000-2025)             **
 **                      J. Chem. Phys. 152, 194103 (2020)                    **
 **                                                                           **
 *******************************************************************************

 DFT| Spin restricted Kohn-Sham (RKS) calculation                            RKS
 DFT| Multiplicity                                                             1
 DFT| Number of spin states                                                    1
 DFT| Charge                                                                   0
 DFT| Self-interaction correction (SIC)                                       NO
 DFT| Cutoffs: density                                              1.000000E-10
 DFT|          gradient                                             1.000000E-10
 DFT|          tau                                                  1.000000E-10
 DFT|          cutoff_smoothing_range                               0.000000E+00
 DFT| XC density smoothing                                                  NONE
 DFT| XC derivatives                                                          PW

 FUNCTIONAL| PBE:
 FUNCTIONAL| J.P.Perdew, K.Burke, M.Ernzerhof, Phys. Rev. Letter, vol. 77, n 18,
 FUNCTIONAL|  pp. 3865-3868, (1996)sx=0.750sc=1.000{spin unpolarized}           


 QS| Method:                                                                GAPW
 QS| Density plane wave grid type                        NON-SPHERICAL FULLSPACE
 QS| Number of grid levels:                                                    4
 QS| Density cutoff [a.u.]:                                                250.0
 QS| Multi grid cutoff [a.u.]: 1) grid level                               250.0
 QS|                           2) grid level                                83.3
 QS|                           3) grid level                                27.8
 QS|                           4) grid level                                 9.3
 QS| Grid level progression factor:                                          3.0
 QS| Relative density cutoff [a.u.]:                                        50.0
 QS| Interaction thresholds: eps_pgf_orb:                                1.0E-12
 QS|                         eps_filter_matrix:                          0.0E+00
 QS|                         eps_core_charge:                            1.0E-14
 QS|                         eps_rho_gspace:                             1.0E-12
 QS|                         eps_rho_rspace:                             1.0E-12
 QS|                         eps_gvg_rspace:                             1.0E-06
 QS|                         eps_ppl:                                    1.0E-02
 QS|                         eps_ppnl:                                   1.0E-08
 QS| GAPW|      One center basis from orbital basis primitives
 QS| GAPW|                   eps_fit:                                    1.0E-04
 QS| GAPW|                   eps_iso:                                    1.0E-12
 QS| GAPW|                   eps_svd:                                    1.0E-08
 QS| GAPW|                   eps_cpc:                                    1.0E-12
 QS| GAPW|   atom-r-grid: quadrature:                                     GC_LOG
 QS| GAPW|      atom-s-grid:  max l :                                          4
 QS| GAPW|      max_l_rho0 :                                                   2


 ATOMIC KIND INFORMATION

  1. Atomic kind: B                                     Number of atoms:       1

     Orbital Basis Set                                         aug-SZV-MOLOPT-ae

       Number of orbital shell sets:                                           2
       Number of orbital shells:                                               6
       Number of primitive Cartesian functions:                               13
       Number of Cartesian basis functions:                                   15
       Number of spherical basis functions:                                   14
       Norm type:                                                              2

       Normalised Cartesian orbitals:

                        Set   Shell   Orbital            Exponent    Coefficient

                          1       1    1s                0.109280       0.032606
                                                         0.155613       0.000000
                                                         0.238409       0.144712
                                                         0.548949       0.113742
                                                         1.426820      -0.031435
                                                         4.590809      -0.105038
                                                        23.194561      -0.099829

                          1       2    2s                0.109280      -0.049098
                                                         0.155613      -0.119813
                                                         0.238409      -0.025283
                                                         0.548949       0.056653
                                                         1.426820       0.132404
                                                         4.590809       0.000000
                                                        23.194561       0.000000

                          1       3    2px               0.109280       0.009109
                                                         0.155613       0.000000
                                                         0.238409       0.101125
                                                         0.548949       0.281559
                                                         1.426820       0.386539
                                                         4.590809       0.360915
                                                        23.194561       0.272788
                          1       3    2py               0.109280       0.009109
                                                         0.155613       0.000000
                                                         0.238409       0.101125
                                                         0.548949       0.281559
                                                         1.426820       0.386539
                                                         4.590809       0.360915
                                                        23.194561       0.272788
                          1       3    2pz               0.109280       0.009109
                                                         0.155613       0.000000
                                                         0.238409       0.101125
                                                         0.548949       0.281559
                                                         1.426820       0.386539
                                                         4.590809       0.360915
                                                        23.194561       0.272788

                          1       4    3px               0.109280       0.062233
                                                         0.155613       0.035668
                                                         0.238409       0.015304
                                                         0.548949      -0.003054
                                                         1.426820       0.021875
                                                         4.590809       0.000000
                                                        23.194561       0.000000
                          1       4    3py               0.109280       0.062233
                                                         0.155613       0.035668
                                                         0.238409       0.015304
                                                         0.548949      -0.003054
                                                         1.426820       0.021875
                                                         4.590809       0.000000
                                                        23.194561       0.000000
                          1       4    3pz               0.109280       0.062233
                                                         0.155613       0.035668
                                                         0.238409       0.015304
                                                         0.548949      -0.003054
                                                         1.426820       0.021875
                                                         4.590809       0.000000
                                                        23.194561       0.000000

                          1       5    3dx2              0.109280       0.000986
                                                         0.155613       0.002022
                                                         0.238409       0.109458
                                                         0.548949       0.095099
                                                         1.426820       0.028232
                                                         4.590809       0.000000
                                                        23.194561       0.000000
                          1       5    3dxy              0.109280       0.001708
                                                         0.155613       0.003503
                                                         0.238409       0.189586
                                                         0.548949       0.164717
                                                         1.426820       0.048900
                                                         4.590809       0.000000
                                                        23.194561       0.000000
                          1       5    3dxz              0.109280       0.001708
                                                         0.155613       0.003503
                                                         0.238409       0.189586
                                                         0.548949       0.164717
                                                         1.426820       0.048900
                                                         4.590809       0.000000
                                                        23.194561       0.000000
                          1       5    3dy2              0.109280       0.000986
                                                         0.155613       0.002022
                                                         0.238409       0.109458
                                                         0.548949       0.095099
                                                         1.426820       0.028232
                                                         4.590809       0.000000
                                                        23.194561       0.000000
                          1       5    3dyz              0.109280       0.001708
                                                         0.155613       0.003503
                                                         0.238409       0.189586
                                                         0.548949       0.164717
                                                         1.426820       0.048900
                                                         4.590809       0.000000
                                                        23.194561       0.000000
                          1       5    3dz2              0.109280       0.000986
                                                         0.155613       0.002022
                                                         0.238409       0.109458
                                                         0.548949       0.095099
                                                         1.426820       0.028232
                                                         4.590809       0.000000
                                                        23.194561       0.000000

                          2       1    1s              506.011837       0.696781
                                                        92.776716       1.051665
                                                        25.955582       1.381280
                                                         8.916443       1.362748
                                                         3.462516       0.753460
                                                         1.426055       0.121219

     RI Auxiliary Basis Set             RI_aug-SZV-MOLOPT-ae_N_RI_035_s_p_d_f_g_

       Number of orbital shell sets:                                          13
       Number of orbital shells:                                              13
       Number of primitive Cartesian functions:                               13
       Number of Cartesian basis functions:                                   40
       Number of spherical basis functions:                                   35
       Norm type:                                                              2

       Normalised Cartesian orbitals:

                        Set   Shell   Orbital            Exponent    Coefficient

                          1       1    7px               0.266783       0.273299
                          1       1    7py               0.266783       0.273299
                          1       1    7pz               0.266783       0.273299

                          2       1    1s                0.279559       0.274009

                          3       1   11dx2              0.438811       0.389399
                          3       1   11dxy              0.438811       0.674459
                          3       1   11dxz              0.438811       0.674459
                          3       1   11dy2              0.438811       0.389399
                          3       1   11dyz              0.438811       0.674459
                          3       1   11dz2              0.438811       0.389399

                          4       1   13fx3              0.524510       0.344667
                          4       1   13fx2y             0.524510       0.770700
                          4       1   13fx2z             0.524510       0.770700
                          4       1   13fxy2             0.524510       0.770700
                          4       1   13fxyz             0.524510       1.334891
                          4       1   13fxz2             0.524510       0.770700
                          4       1   13fy3              0.524510       0.344667
                          4       1   13fy2z             0.524510       0.770700
                          4       1   13fyz2             0.524510       0.770700
                          4       1   13fz3              0.524510       0.344667

                          5       1    2s                0.649053       0.515371

                          6       1    8px               0.700602       0.913649
                          6       1    8py               0.700602       0.913649
                          6       1    8pz               0.700602       0.913649

                          7       1    3s                1.364167       0.899624

                          8       1   12dx2              1.905484       5.086498
                          8       1   12dxy              1.905484       8.810073
                          8       1   12dxz              1.905484       8.810073
                          8       1   12dy2              1.905484       5.086498
                          8       1   12dyz              1.905484       8.810073
                          8       1   12dz2              1.905484       5.086498

                          9       1    9px               2.433823       4.333127
                          9       1    9py               2.433823       4.333127
                          9       1    9pz               2.433823       4.333127

                         10       1    4s                4.732710       2.286875

                         11       1   10px              11.930396      31.605210
                         11       1   10py              11.930396      31.605210
                         11       1   10pz              11.930396      31.605210

                         12       1    5s               15.386625       5.536912

                         13       1    6s               46.757872      12.743865

       Atomic covalent radius [Angstrom]:                                  0.820

       Atomic van der Waals radius [Angstrom]:                             1.920

     The atoms of this atomic kind are PAW atoms (GAPW):
       Hard Gaussian function radius:                                      1.512
       Rho0 radius:                                                        1.512
       Maximum GTO radius used for PAW projector construction:            24.566

     GAPW Soft Basis Set                                  aug-SZV-MOLOPT-ae_soft

       Number of orbital shell sets:                                           2
       Number of orbital shells:                                               6
       Number of primitive Cartesian functions:                                7
       Number of Cartesian basis functions:                                   15
       Number of spherical basis functions:                                   14
       Norm type:                                                              2

       Normalised Cartesian orbitals:

                        Set   Shell   Orbital            Exponent    Coefficient

                          1       1    1s                0.109280       0.032606
                                                         0.155613       0.000000
                                                         0.238409       0.144712
                                                         0.548949       0.113742
                                                         1.426820      -0.031435

                          1       2    2s                0.109280      -0.049098
                                                         0.155613      -0.119813
                                                         0.238409      -0.025283
                                                         0.548949       0.056653
                                                         1.426820       0.132404

                          1       3    2px               0.109280       0.009109
                                                         0.155613       0.000000
                                                         0.238409       0.101125
                                                         0.548949       0.281559
                                                         1.426820       0.386539
                          1       3    2py               0.109280       0.009109
                                                         0.155613       0.000000
                                                         0.238409       0.101125
                                                         0.548949       0.281559
                                                         1.426820       0.386539
                          1       3    2pz               0.109280       0.009109
                                                         0.155613       0.000000
                                                         0.238409       0.101125
                                                         0.548949       0.281559
                                                         1.426820       0.386539

                          1       4    3px               0.109280       0.062233
                                                         0.155613       0.035668
                                                         0.238409       0.015304
                                                         0.548949      -0.003054
                                                         1.426820       0.021875
                          1       4    3py               0.109280       0.062233
                                                         0.155613       0.035668
                                                         0.238409       0.015304
                                                         0.548949      -0.003054
                                                         1.426820       0.021875
                          1       4    3pz               0.109280       0.062233
                                                         0.155613       0.035668
                                                         0.238409       0.015304
                                                         0.548949      -0.003054
                                                         1.426820       0.021875

                          1       5    3dx2              0.109280       0.000986
                                                         0.155613       0.002022
                                                         0.238409       0.109458
                                                         0.548949       0.095099
                                                         1.426820       0.028232
                          1       5    3dxy              0.109280       0.001708
                                                         0.155613       0.003503
                                                         0.238409       0.189586
                                                         0.548949       0.164717
                                                         1.426820       0.048900
                          1       5    3dxz              0.109280       0.001708
                                                         0.155613       0.003503
                                                         0.238409       0.189586
                                                         0.548949       0.164717
                                                         1.426820       0.048900
                          1       5    3dy2              0.109280       0.000986
                                                         0.155613       0.002022
                                                         0.238409       0.109458
                                                         0.548949       0.095099
                                                         1.426820       0.028232
                          1       5    3dyz              0.109280       0.001708
                                                         0.155613       0.003503
                                                         0.238409       0.189586
                                                         0.548949       0.164717
                                                         1.426820       0.048900
                          1       5    3dz2              0.109280       0.000986
                                                         0.155613       0.002022
                                                         0.238409       0.109458
                                                         0.548949       0.095099
                                                         1.426820       0.028232

                          2       1    1s                3.462516       0.753460
                                                         1.426055       0.121219

     AE Potential information for                                            ALL

       Description:                                       All-electron potential
                                          Krack, Parrinello, PCCP 2, 2105 (2000)

       Gaussian exponent of the core charge distribution:               2.655410
       Electronic configuration (s p d ...):                           4   1   0

  2. Atomic kind: N                                     Number of atoms:       1

     Orbital Basis Set                                      aug-SZV-MOLOPT-ae-SR

       Number of orbital shell sets:                                           2
       Number of orbital shells:                                               6
       Number of primitive Cartesian functions:                                7
       Number of Cartesian basis functions:                                   15
       Number of spherical basis functions:                                   14
       Norm type:                                                              2

       Normalised Cartesian orbitals:

                        Set   Shell   Orbital            Exponent    Coefficient

                          1       1    1s                0.112012       0.000000
                                                         0.285714       0.194997
                                                         0.878497       0.258372
                                                         3.780456      -0.193164

                          1       2    2s                0.112012       0.083551
                                                         0.285714      -0.189186
                                                         0.878497      -0.469875
                                                         3.780456      -0.002085

                          1       3    2px               0.112012       0.000000
                                                         0.285714       0.116706
                                                         0.878497       0.736704
                                                         3.780456       1.171553
                          1       3    2py               0.112012       0.000000
                                                         0.285714       0.116706
                                                         0.878497       0.736704
                                                         3.780456       1.171553
                          1       3    2pz               0.112012       0.000000
                                                         0.285714       0.116706
                                                         0.878497       0.736704
                                                         3.780456       1.171553

                          1       4    3px               0.112012       0.141957
                                                         0.285714      -0.286713
                                                         0.878497       0.074784
                                                         3.780456       0.008085
                          1       4    3py               0.112012       0.141957
                                                         0.285714      -0.286713
                                                         0.878497       0.074784
                                                         3.780456       0.008085
                          1       4    3pz               0.112012       0.141957
                                                         0.285714      -0.286713
                                                         0.878497       0.074784
                                                         3.780456       0.008085

                          1       5    3dx2              0.112012      -0.000364
                                                         0.285714       0.186009
                                                         0.878497      -0.044751
                                                         3.780456       1.815169
                          1       5    3dxy              0.112012      -0.000630
                                                         0.285714       0.322177
                                                         0.878497      -0.077512
                                                         3.780456       3.143965
                          1       5    3dxz              0.112012      -0.000630
                                                         0.285714       0.322177
                                                         0.878497      -0.077512
                                                         3.780456       3.143965
                          1       5    3dy2              0.112012      -0.000364
                                                         0.285714       0.186009
                                                         0.878497      -0.044751
                                                         3.780456       1.815169
                          1       5    3dyz              0.112012      -0.000630
                                                         0.285714       0.322177
                                                         0.878497      -0.077512
                                                         3.780456       3.143965
                          1       5    3dz2              0.112012      -0.000364
                                                         0.285714       0.186009
                                                         0.878497      -0.044751
                                                         3.780456       1.815169

                          2       1    1s               99.106169       3.454881
                                                        18.052312       3.341410
                                                         4.885660       1.041372

     RI Auxiliary Basis Set             RI_aug-SZV-MOLOPT-ae-SR_N_RI_089_s_p_d_f

       Number of orbital shell sets:                                          21
       Number of orbital shells:                                              21
       Number of primitive Cartesian functions:                               21
       Number of Cartesian basis functions:                                  120
       Number of spherical basis functions:                                   89
       Norm type:                                                              2

       Normalised Cartesian orbitals:

                        Set   Shell   Orbital            Exponent    Coefficient

                          1       1    1s                0.267502       0.265097

                          2       1    7px               0.363169       0.401861
                          2       1    7py               0.363169       0.401861
                          2       1    7pz               0.363169       0.401861

                          3       1   12dx2              0.369517       0.288250
                          3       1   12dxy              0.369517       0.499264
                          3       1   12dxz              0.369517       0.499264
                          3       1   12dy2              0.369517       0.288250
                          3       1   12dyz              0.369517       0.499264
                          3       1   12dz2              0.369517       0.288250

                          4       1    2s                0.470345       0.404783

                          5       1   16fx3              0.516119       0.332385
                          5       1   16fx2y             0.516119       0.743236
                          5       1   16fx2z             0.516119       0.743236
                          5       1   16fxy2             0.516119       0.743236
                          5       1   16fxyz             0.516119       1.287322
                          5       1   16fxz2             0.516119       0.743236
                          5       1   16fy3              0.516119       0.332385
                          5       1   16fy2z             0.516119       0.743236
                          5       1   16fyz2             0.516119       0.743236
                          5       1   16fz3              0.516119       0.332385

                          6       1   13dx2              0.573630       0.622322
                          6       1   13dxy              0.573630       1.077893
                          6       1   13dxz              0.573630       1.077893
                          6       1   13dy2              0.573630       0.622322
                          6       1   13dyz              0.573630       1.077893
                          6       1   13dz2              0.573630       0.622322

                          7       1    8px               0.636008       0.809596
                          7       1    8py               0.636008       0.809596
                          7       1    8pz               0.636008       0.809596

                          8       1   19gx4              0.870859       0.760838
                          8       1   19gx3y             0.870859       2.012988
                          8       1   19gx3z             0.870859       2.012988
                          8       1   19gx2y2            0.870859       2.598756
                          8       1   19gx2yz            0.870859       4.501178
                          8       1   19gx2z2            0.870859       2.598756
                          8       1   19gxy3             0.870859       2.012988
                          8       1   19gxy2z            0.870859       4.501178
                          8       1   19gxyz2            0.870859       4.501178
                          8       1   19gxz3             0.870859       2.012988
                          8       1   19gy4              0.870859       0.760838
                          8       1   19gy3z             0.870859       2.012988
                          8       1   19gy2z2            0.870859       2.598756
                          8       1   19gyz3             0.870859       2.012988
                          8       1   19gz4              0.870859       0.760838

                          9       1   17fx3              1.154647       2.034537
                          9       1   17fx2y             1.154647       4.549363
                          9       1   17fx2z             1.154647       4.549363
                          9       1   17fxy2             1.154647       4.549363
                          9       1   17fxyz             1.154647       7.879729
                          9       1   17fxz2             1.154647       4.549363
                          9       1   17fy3              1.154647       2.034537
                          9       1   17fy2z             1.154647       4.549363
                          9       1   17fyz2             1.154647       4.549363
                          9       1   17fz3              1.154647       2.034537

                         10       1   20gx4              1.247848       2.045878
                         10       1   20gx3y             1.247848       5.412884
                         10       1   20gx3z             1.247848       5.412884
                         10       1   20gx2y2            1.247848       6.988003
                         10       1   20gx2yz            1.247848      12.103577
                         10       1   20gx2z2            1.247848       6.988003
                         10       1   20gxy3             1.247848       5.412884
                         10       1   20gxy2z            1.247848      12.103577
                         10       1   20gxyz2            1.247848      12.103577
                         10       1   20gxz3             1.247848       5.412884
                         10       1   20gy4              1.247848       2.045878
                         10       1   20gy3z             1.247848       5.412884
                         10       1   20gy2z2            1.247848       6.988003
                         10       1   20gyz3             1.247848       5.412884
                         10       1   20gz4              1.247848       2.045878

                         11       1    3s                1.608218       1.017815

                         12       1   21gx4              1.820317       5.778825
                         12       1   21gx3y             1.820317      15.289334
                         12       1   21gx3z             1.820317      15.289334
                         12       1   21gx2y2            1.820317      19.738445
                         12       1   21gx2yz            1.820317      34.187990
                         12       1   21gx2z2            1.820317      19.738445
                         12       1   21gxy3             1.820317      15.289334
                         12       1   21gxy2z            1.820317      34.187990
                         12       1   21gxyz2            1.820317      34.187990
                         12       1   21gxz3             1.820317      15.289334
                         12       1   21gy4              1.820317       5.778825
                         12       1   21gy3z             1.820317      15.289334
                         12       1   21gy2z2            1.820317      19.738445
                         12       1   21gyz3             1.820317      15.289334
                         12       1   21gz4              1.820317       5.778825

                         13       1   14dx2              2.087918       5.969089
                         13       1   14dxy              2.087918      10.338765
                         13       1   14dxz              2.087918      10.338765
                         13       1   14dy2              2.087918       5.969089
                         13       1   14dyz              2.087918      10.338765
                         13       1   14dz2              2.087918       5.969089

                         14       1    9px               2.537910       4.565993
                         14       1    9py               2.537910       4.565993
                         14       1    9pz               2.537910       4.565993

                         15       1   18fx3              3.628403      26.749427
                         15       1   18fx2y             3.628403      59.813538
                         15       1   18fx2z             3.628403      59.813538
                         15       1   18fxy2             3.628403      59.813538
                         15       1   18fxyz             3.628403     103.600086
                         15       1   18fxz2             3.628403      59.813538
                         15       1   18fy3              3.628403      26.749427
                         15       1   18fy2z             3.628403      59.813538
                         15       1   18fyz2             3.628403      59.813538
                         15       1   18fz3              3.628403      26.749427

                         16       1   15dx2              5.366720      31.145839
                         16       1   15dxy              5.366720      53.946175
                         16       1   15dxz              5.366720      53.946175
                         16       1   15dy2              5.366720      31.145839
                         16       1   15dyz              5.366720      53.946175
                         16       1   15dz2              5.366720      31.145839

                         17       1    4s                7.348149       3.180853

                         18       1   10px               7.396841      17.387931
                         18       1   10py               7.396841      17.387931
                         18       1   10pz               7.396841      17.387931

                         19       1   11px              21.508501      66.024142
                         19       1   11py              21.508501      66.024142
                         19       1   11pz              21.508501      66.024142

                         20       1    5s               29.895673       9.112055

                         21       1    6s              109.779167      24.171302

       Atomic covalent radius [Angstrom]:                                  0.750

       Atomic van der Waals radius [Angstrom]:                             1.550

     The atoms of this atomic kind are PAW atoms (GAPW):
       Hard Gaussian function radius:                                      1.512
       Rho0 radius:                                                        1.512
       Maximum GTO radius used for PAW projector construction:            24.566

     GAPW Soft Basis Set                               aug-SZV-MOLOPT-ae-SR_soft

       Number of orbital shell sets:                                           2
       Number of orbital shells:                                               6
       Number of primitive Cartesian functions:                                4
       Number of Cartesian basis functions:                                   15
       Number of spherical basis functions:                                   14
       Norm type:                                                              2

       Normalised Cartesian orbitals:

                        Set   Shell   Orbital            Exponent    Coefficient

                          1       1    1s                0.112012       0.000000
                                                         0.285714       0.194997
                                                         0.878497       0.258372
                                                         3.780456      -0.193164

                          1       2    2s                0.112012       0.083551
                                                         0.285714      -0.189186
                                                         0.878497      -0.469875
                                                         3.780456      -0.002085

                          1       3    2px               0.112012       0.000000
                                                         0.285714       0.116706
                                                         0.878497       0.736704
                                                         3.780456       1.171553
                          1       3    2py               0.112012       0.000000
                                                         0.285714       0.116706
                                                         0.878497       0.736704
                                                         3.780456       1.171553
                          1       3    2pz               0.112012       0.000000
                                                         0.285714       0.116706
                                                         0.878497       0.736704
                                                         3.780456       1.171553

                          1       4    3px               0.112012       0.141957
                                                         0.285714      -0.286713
                                                         0.878497       0.074784
                                                         3.780456       0.008085
                          1       4    3py               0.112012       0.141957
                                                         0.285714      -0.286713
                                                         0.878497       0.074784
                                                         3.780456       0.008085
                          1       4    3pz               0.112012       0.141957
                                                         0.285714      -0.286713
                                                         0.878497       0.074784
                                                         3.780456       0.008085

                          1       5    3dx2              0.112012      -0.000364
                                                         0.285714       0.186009
                                                         0.878497      -0.044751
                                                         3.780456       1.815169
                          1       5    3dxy              0.112012      -0.000630
                                                         0.285714       0.322177
                                                         0.878497      -0.077512
                                                         3.780456       3.143965
                          1       5    3dxz              0.112012      -0.000630
                                                         0.285714       0.322177
                                                         0.878497      -0.077512
                                                         3.780456       3.143965
                          1       5    3dy2              0.112012      -0.000364
                                                         0.285714       0.186009
                                                         0.878497      -0.044751
                                                         3.780456       1.815169
                          1       5    3dyz              0.112012      -0.000630
                                                         0.285714       0.322177
                                                         0.878497      -0.077512
                                                         3.780456       3.143965
                          1       5    3dz2              0.112012      -0.000364
                                                         0.285714       0.186009
                                                         0.878497      -0.044751
                                                         3.780456       1.815169

                          2       1    1s         

     AE Potential information for                                            ALL

       Description:                                       All-electron potential
                                          Krack, Parrinello, PCCP 2, 2105 (2000)

       Gaussian exponent of the core charge distribution:               5.979100
       Electronic configuration (s p d ...):                           4   3   0


 MOLECULE KIND INFORMATION


 All atoms are their own molecule, skipping detailed information


 TOTAL NUMBERS AND MAXIMUM NUMBERS

  Total number of            - Atomic kinds:                                   2
                             - Atoms:                                          2
                             - Shell sets:                                     4
                             - Shells:                                        12
                             - Primitive Cartesian functions:                 20
                             - Cartesian basis functions:                     30
                             - Spherical basis functions:                     28

  Maximum angular momentum of the orbital basis functions:                     2


 MODULE QUICKSTEP: ATOMIC COORDINATES IN ANGSTROM

   Atom Kind Element         X             Y             Z       Z(eff)     Mass
      1    1 B     5     14.358500     15.000000     15.000000   5.0000  10.8110
      2    2 N     7     15.641500     15.000000     15.000000   7.0000  14.0067



 SCF PARAMETERS         Density guess:                                    ATOMIC
                        --------------------------------------------------------
                        max_scf:                                             500
                        max_scf_history:                                       0
                        max_diis:                                              4
                        --------------------------------------------------------
                        eps_scf:                                        1.00E-06
                        eps_scf_history:                                0.00E+00
                        eps_diis:                                       1.00E-01
                        eps_eigval:                                     1.00E-05
                        --------------------------------------------------------
                        level_shift [a.u.]:                             0.000000
                        added MOs                                        22    0
                        --------------------------------------------------------
                        Mixing method:                            BROYDEN_MIXING
                                                charge density mixing in g-space
                        --------------------------------------------------------
                        No outer SCF

 PW_GRID| Information for grid number                                          1
 PW_GRID| Grid distributed over                                    24 processors
 PW_GRID| Real space group dimensions                                    24    1
 PW_GRID| the grid is blocked:                                                NO
 PW_GRID| Cutoff [a.u.]                                                    250.0
 PW_GRID| spherical cutoff:                                                   NO
 PW_GRID|   Bounds   1           -202     202                Points:         405
 PW_GRID|   Bounds   2           -202     202                Points:         405
 PW_GRID|   Bounds   3           -202     202                Points:         405
 PW_GRID| Volume element (a.u.^3)  0.2743E-02     Volume (a.u.^3)    182205.0337
 PW_GRID| Grid span                                                    FULLSPACE
 PW_GRID|   Distribution                         Average         Max         Min
 PW_GRID|   G-Vectors                          2767921.9     2768175     2767770
 PW_GRID|   G-Rays                                6834.4        6835        6834
 PW_GRID|   Real Space Points                  2767921.9     2788425     2624400

 PW_GRID| Information for grid number                                          2
 PW_GRID| Number of the reference grid                                         1
 PW_GRID| Grid distributed over                                    24 processors
 PW_GRID| Real space group dimensions                                    24    1
 PW_GRID| the grid is blocked:                                                NO
 PW_GRID| Cutoff [a.u.]                                                     83.3
 PW_GRID| spherical cutoff:                                                   NO
 PW_GRID|   Bounds   1           -120     119                Points:         240
 PW_GRID|   Bounds   2           -120     119                Points:         240
 PW_GRID|   Bounds   3           -120     119                Points:         240
 PW_GRID| Volume element (a.u.^3)  0.1318E-01     Volume (a.u.^3)    182205.0337
 PW_GRID| Grid span                                                    FULLSPACE
 PW_GRID|   Distribution                         Average         Max         Min
 PW_GRID|   G-Vectors                           576000.0      576240      575760
 PW_GRID|   G-Rays                                2400.0        2401        2399
 PW_GRID|   Real Space Points                   576000.0      576000      576000

 PW_GRID| Information for grid number                                          3
 PW_GRID| Number of the reference grid                                         1
 PW_GRID| Grid distributed over                                    24 processors
 PW_GRID| Real space group dimensions                                    24    1
 PW_GRID| the grid is blocked:                                                NO
 PW_GRID| Cutoff [a.u.]                                                     27.8
 PW_GRID| spherical cutoff:                                                   NO
 PW_GRID|   Bounds   1            -67      67                Points:         135
 PW_GRID|   Bounds   2            -67      67                Points:         135
 PW_GRID|   Bounds   3            -67      67                Points:         135
 PW_GRID| Volume element (a.u.^3)  0.7406E-01     Volume (a.u.^3)    182205.0337
 PW_GRID| Grid span                                                    FULLSPACE
 PW_GRID|   Distribution                         Average         Max         Min
 PW_GRID|   G-Vectors                           102515.6      102735      102330
 PW_GRID|   G-Rays                                 759.4         761         758
 PW_GRID|   Real Space Points                   102515.6      109350       91125

 PW_GRID| Information for grid number                                          4
 PW_GRID| Number of the reference grid                                         1
 PW_GRID| Grid distributed over                                    24 processors
 PW_GRID| Real space group dimensions                                    24    1
 PW_GRID| the grid is blocked:                                                NO
 PW_GRID| Cutoff [a.u.]                                                      9.3
 PW_GRID| spherical cutoff:                                                   NO
 PW_GRID|   Bounds   1            -40      39                Points:          80
 PW_GRID|   Bounds   2            -40      39                Points:          80
 PW_GRID|   Bounds   3            -40      39                Points:          80
 PW_GRID| Volume element (a.u.^3)  0.3559         Volume (a.u.^3)    182205.0337
 PW_GRID| Grid span                                                    FULLSPACE
 PW_GRID|   Distribution                         Average         Max         Min
 PW_GRID|   G-Vectors                            21333.3       21360       21280
 PW_GRID|   G-Rays                                 266.7         267         266
 PW_GRID|   Real Space Points                    21333.3       25600       19200

 POISSON| Solver                                                         WAVELET
 POISSON| Wavelet| Scaling function                                           40
 POISSON| Periodicity                                                       NONE

 RS_GRID| Information for grid number                                          1
 RS_GRID|   Bounds   1           -202     202                Points:         405
 RS_GRID|   Bounds   2           -202     202                Points:         405
 RS_GRID|   Bounds   3           -202     202                Points:         405
 RS_GRID| Real space distribution over                                  4 groups
 RS_GRID| Real space distribution along direction                              2
 RS_GRID| Border size                                                         35
 RS_GRID| Real space distribution over                                  6 groups
 RS_GRID| Real space distribution along direction                              3
 RS_GRID| Border size                                                         35
 RS_GRID|   Distribution                         Average         Max         Min
 RS_GRID|   Planes                                 171.2         172         171
 RS_GRID|   Distribution                         Average         Max         Min
 RS_GRID|   Planes                                 137.5         138         137

 RS_GRID| Information for grid number                                          2
 RS_GRID|   Bounds   1           -120     119                Points:         240
 RS_GRID|   Bounds   2           -120     119                Points:         240
 RS_GRID|   Bounds   3           -120     119                Points:         240
 RS_GRID| Real space distribution over                                  4 groups
 RS_GRID| Real space distribution along direction                              2
 RS_GRID| Border size                                                         37
 RS_GRID| Real space distribution over                                  6 groups
 RS_GRID| Real space distribution along direction                              3
 RS_GRID| Border size                                                         37
 RS_GRID|   Distribution                         Average         Max         Min
 RS_GRID|   Planes                                 134.0         134         134
 RS_GRID|   Distribution                         Average         Max         Min
 RS_GRID|   Planes                                 114.0         114         114

 RS_GRID| Information for grid number                                          3
 RS_GRID|   Bounds   1            -67      67                Points:         135
 RS_GRID|   Bounds   2            -67      67                Points:         135
 RS_GRID|   Bounds   3            -67      67                Points:         135
 RS_GRID| Real space fully replicated
 RS_GRID| Group size                                                           1

 RS_GRID| Information for grid number                                          4
 RS_GRID|   Bounds   1            -40      39                Points:          80
 RS_GRID|   Bounds   2            -40      39                Points:          80
 RS_GRID|   Bounds   3            -40      39                Points:          80
 RS_GRID| Real space fully replicated
 RS_GRID| Group size                                                           1

  HFX_INFO| Replica ID:                                                        1
  HFX_INFO| FRACTION:                                               0.2500000000
  HFX_INFO| Interaction Potential:                                       COULOMB
  HFX_INFO| EPS_SCHWARZ:                                                 1.0E-10
  HFX_INFO| EPS_SCHWARZ_FORCES                                           1.0E-08
  HFX_INFO| EPS_STORAGE_SCALING:                                         1.0E+00
  HFX_INFO| NBINS:                                                            64
  HFX_INFO| BLOCK_SIZE:                                                        1
  HFX_INFO| Number of periodic shells considered:                           NONE
  HFX_INFO| Number of periodic cells considered:                            NONE

 
 RI-RPA| using GPW style
 

 OVERLAP MATRIX CONDITION NUMBER
 1-Norm Condition Number (Estimate)
   CN : |A|*|A^-1|:  4.761E+000 *  1.958E+002   = 9.320E+002  Log(1-CN):  2.9694
 1-Norm and 2-Norm Condition Numbers using Diagonalization
   CN : |A|*|A^-1|:  4.761E+000 *  1.958E+002   = 9.320E+002  Log(1-CN):  2.9694
   CN : max/min ev:  3.209E+000 /  8.722E-003   = 3.680E+002  Log(2-CN):  2.5658

 Number of electrons:                                                         12
 Number of occupied orbitals:                                                  6
 Number of molecular orbitals:                                                28

 Number of orbital functions:                                                 28
 Number of independent orbital functions:                                     28

 Extrapolation method: initial_guess

 Atomic guess: The first density matrix is obtained in terms of atomic orbitals
               and electronic configurations assigned to each atomic kind

 Guess for atomic kind: B

 Electronic structure
    Total number of core electrons                                          0.00
    Total number of valence electrons                                       5.00
    Total number of electrons                                               5.00
    Multiplicity                                                   not specified
    S      2.00  2.00
    P      1.00


 *******************************************************************************
                  Iteration          Convergence                     Energy [au]
 *******************************************************************************
                          1        0.612489E-01                 -24.304439508901
                          2        0.220484E-01                 -24.305945213911
                          3        0.367076E-03                 -24.306247196960
                          4        0.456899E-05                 -24.306247340970
                          5        0.241868E-07                 -24.306247340986

 Energy components [Hartree]           Total Energy ::          -24.306247340986
                                        Band Energy ::          -13.825803348850
                                     Kinetic Energy ::           23.970530113188
                                   Potential Energy ::          -48.276777454174
                                      Virial (-V/T) ::            2.014005415242
                                        Core Energy ::          -32.361048727638
                                          XC Energy ::           -3.546375173816
                                     Coulomb Energy ::           11.601176560468

 Orbital energies  State     L     Occupation   Energy[a.u.]          Energy[eV]

                       1     0          2.000      -6.531739         -177.737651
                       2     0          2.000      -0.324835           -8.839199

                       1     1          1.000      -0.112657           -3.065543


 Total Electron Density at R=0:                                        58.671969

 Guess for atomic kind: N

 Electronic structure
    Total number of core electrons                                          0.00
    Total number of valence electrons                                       7.00
    Total number of electrons                                               7.00
    Multiplicity                                                   not specified
    S      2.00  2.00
    P      3.00


 *******************************************************************************
                  Iteration          Convergence                     Energy [au]
 *******************************************************************************
                          1        0.159909                     -53.340877683251
                          2        0.769146E-01                 -53.353877926770
                          3        0.463278E-03                 -53.358451509292
                          4        0.156014E-03                 -53.358451645833
                          5        0.102251E-04                 -53.358451658533
                          6        0.178265E-08                 -53.358451658590

 Energy components [Hartree]           Total Energy ::          -53.358451658590
                                        Band Energy ::          -29.695765597812
                                     Kinetic Energy ::           52.385975587247
                                   Potential Energy ::         -105.744427245837
                                      Virial (-V/T) ::            2.018563672060
                                        Core Energy ::          -72.851122194822
                                          XC Energy ::           -6.109149652554
                                     Coulomb Energy ::           25.601820188786

 Orbital energies  State     L     Occupation   Energy[a.u.]          Energy[eV]

                       1     0          2.000     -13.845221         -376.747634
                       2     0          2.000      -0.658428          -17.916731

                       1     1          3.000      -0.229489           -6.244716


 Total Electron Density at R=0:                                       126.344533
 Re-scaling the density matrix to get the right number of electrons
                  # Electrons              Trace(P)               Scaling factor
                           12                12.000                        1.000


 SCF WAVEFUNCTION OPTIMIZATION

  Step     Update method      Time    Convergence         Total energy    Change
  ------------------------------------------------------------------------------

  HFX_MEM_INFO| Est. max. program size before HFX [MiB]:                    2156
  HFX_MEM_INFO| Number of cart. primitive ERI's calculated:             82458356
  HFX_MEM_INFO| Number of sph. ERI's calculated:                          230496
  HFX_MEM_INFO| Number of sph. ERI's stored in-core:                      230496
  HFX_MEM_INFO| Number of sph. ERI's stored on disk:                           0
  HFX_MEM_INFO| Number of sph. ERI's calculated on the fly:                    0
  HFX_MEM_INFO| Total memory consumption ERI's RAM [MiB]:                      2
  HFX_MEM_INFO| Whereof max-vals [MiB]:                                        1
  HFX_MEM_INFO| Total compression factor ERI's RAM:                         1.11
  HFX_MEM_INFO| Total memory consumption ERI's disk [MiB]:                     0
  HFX_MEM_INFO| Total compression factor ERI's disk:                        0.00
  HFX_MEM_INFO| Size of density/Fock matrix [MiB]:                             0
  HFX_MEM_INFO| Size of buffers [MiB]:                                         0
  HFX_MEM_INFO| Est. max. program size after HFX  [MiB]:                    2667

     1 NoMix/Diag. 0.10E+00   14.0     0.61096051       -78.7651476491 -7.88E+01
     2 Broy./Diag. 0.10E+00    5.1     0.12527408       -77.6174479468  1.15E+00
     3 Broy./Diag. 0.10E+00    5.2     0.18353002       -77.0703186456  5.47E-01
     4 Broy./Diag. 0.10E+00    5.1     0.27296110       -76.9341531432  1.36E-01
     5 Broy./Diag. 0.10E+00    5.1     0.22638250       -77.9672150413 -1.03E+00
     6 Broy./Diag. 0.10E+00    5.2     0.09285554       -78.4216564362 -4.54E-01
     7 Broy./Diag. 0.10E+00    5.2     0.04891191       -77.9136200362  5.08E-01
     8 Broy./Diag. 0.10E+00    5.2     0.28246655       -77.9447784014 -3.12E-02
     9 Broy./Diag. 0.10E+00    5.5     0.16242353       -78.7186927071 -7.74E-01
    10 Broy./Diag. 0.10E+00    5.4     0.17401444       -79.0188061468 -3.00E-01
    11 Broy./Diag. 0.10E+00    5.4     0.12390440       -79.3408958027 -3.22E-01
    12 Broy./Diag. 0.10E+00    5.3     0.10258266       -79.5259362241 -1.85E-01
    13 Broy./Diag. 0.10E+00    5.3     0.06950244       -79.6704337465 -1.44E-01
    14 Broy./Diag. 0.10E+00    5.3     0.02408169       -79.7209496890 -5.05E-02
    15 Broy./Diag. 0.10E+00    5.4     0.06703362       -79.7157598448  5.19E-03
    16 Broy./Diag. 0.10E+00    5.5     0.09404164       -79.5539747441  1.62E-01
    17 Broy./Diag. 0.10E+00    5.7     0.08343532       -79.3395541098  2.14E-01
    18 Broy./Diag. 0.10E+00    5.8     0.08446907       -79.1793780477  1.60E-01
    19 Broy./Diag. 0.10E+00    5.7     0.13261709       -79.0035433845  1.76E-01
    20 Broy./Diag. 0.10E+00    5.6     0.16321275       -78.7376159540  2.66E-01
    21 Broy./Diag. 0.10E+00    5.6     0.12049292       -78.4709237610  2.67E-01
    22 Broy./Diag. 0.10E+00    5.5     0.08189759       -78.3104957266  1.60E-01
    23 Broy./Diag. 0.10E+00    5.5     0.05834519       -78.1938085574  1.17E-01
    24 Broy./Diag. 0.10E+00    5.5     0.03054413       -78.1050464999  8.88E-02
    25 Broy./Diag. 0.10E+00    5.5     0.02200460       -78.0634216865  4.16E-02
    26 Broy./Diag. 0.10E+00    5.5     0.01254585       -78.0306184138  3.28E-02
    27 Broy./Diag. 0.10E+00    5.4     0.01294531       -78.0721981594 -4.16E-02
    28 Broy./Diag. 0.10E+00    5.3     0.00684184       -78.1071226359 -3.49E-02
    29 Broy./Diag. 0.10E+00    5.3     0.02852736       -78.0710186346  3.61E-02
    30 Broy./Diag. 0.10E+00    5.4     0.01921059       -77.9836551551  8.74E-02
    31 Broy./Diag. 0.10E+00    5.6     0.02372382       -77.9466411305  3.70E-02
    32 Broy./Diag. 0.10E+00    5.5     0.08888015       -78.0181390158 -7.15E-02
    33 Broy./Diag. 0.10E+00    5.6     0.17017047       -78.2742668717 -2.56E-01
    34 Broy./Diag. 0.10E+00    5.8     0.06110947       -78.6298233990 -3.56E-01
    35 Broy./Diag. 0.10E+00    5.6     0.09197266       -78.6596252440 -2.98E-02
    36 Broy./Diag. 0.10E+00    5.7     0.06213748       -78.3821928570  2.77E-01
    37 Broy./Diag. 0.10E+00    5.6     0.03595400       -78.2498290268  1.32E-01
    38 Broy./Diag. 0.10E+00    5.5     0.02502174       -78.1897190824  6.01E-02
    39 Broy./Diag. 0.10E+00    5.6     0.01255452       -78.1620710795  2.76E-02
    40 Broy./Diag. 0.10E+00    5.4     0.03059629       -78.2200692669 -5.80E-02
    41 Broy./Diag. 0.10E+00    5.5     0.02146295       -78.3031448242 -8.31E-02
[...]
   418 Broy./Diag. 0.10E+00    5.4     0.02054453       -78.2018597572  1.30E-01
   419 Broy./Diag. 0.10E+00    5.7     0.02261555       -78.2130785961 -1.12E-02
   420 Broy./Diag. 0.10E+00    5.7     0.01361886       -78.2742176537 -6.11E-02
   421 Broy./Diag. 0.10E+00    5.8     0.00890773       -78.2438092041  3.04E-02
   422 Broy./Diag. 0.10E+00    5.6     0.00862276       -78.2433947199  4.14E-04
   423 Broy./Diag. 0.10E+00    5.7     0.03642088       -78.2876406152 -4.42E-02
   424 Broy./Diag. 0.10E+00    5.6     0.02214515       -78.3875108123 -9.99E-02
   425 Broy./Diag. 0.10E+00    5.7     0.02356703       -78.4115928102 -2.41E-02
   426 Broy./Diag. 0.10E+00    5.5     0.02812001       -78.3587862347  5.28E-02
   427 Broy./Diag. 0.10E+00    5.4     0.08396905       -78.4664588374 -1.08E-01
   428 Broy./Diag. 0.10E+00    5.4     0.04229305       -78.6714849602 -2.05E-01
   429 Broy./Diag. 0.10E+00    5.4     0.04349597       -78.7572505017 -8.58E-02
   430 Broy./Diag. 0.10E+00    5.4     0.05909731       -78.8503923903 -9.31E-02
   431 Broy./Diag. 0.10E+00    5.4     0.07712735       -79.0160055084 -1.66E-01
   432 Broy./Diag. 0.10E+00    5.5     0.08934258       -79.2335242095 -2.18E-01
   433 Broy./Diag. 0.10E+00    5.5     0.10346803       -79.3024222285 -6.89E-02
   434 Broy./Diag. 0.10E+00    5.5     0.10683205       -79.2124936163  8.99E-02
   435 Broy./Diag. 0.10E+00    5.8     0.08567893       -79.2178810242 -5.39E-03
   436 Broy./Diag. 0.10E+00    5.8     0.05164273       -79.3666857705 -1.49E-01
   437 Broy./Diag. 0.10E+00    5.7     0.08822043       -79.3747634155 -8.08E-03
   438 Broy./Diag. 0.10E+00    5.6     0.09557185       -79.2091107464  1.66E-01
   439 Broy./Diag. 0.10E+00    5.5     0.03031271       -79.0019601398  2.07E-01
   440 Broy./Diag. 0.10E+00    5.5     0.15535165       -78.7329376639  2.69E-01
   441 Broy./Diag. 0.10E+00    5.6     0.14543561       -78.3264568458  4.06E-01
   442 Broy./Diag. 0.10E+00    5.4     0.12296547       -77.9614057442  3.65E-01
   443 Broy./Diag. 0.10E+00    5.5     0.09962927       -78.0125740352 -5.12E-02
   444 Broy./Diag. 0.10E+00    5.4     0.18686163       -78.5338637739 -5.21E-01
   445 Broy./Diag. 0.10E+00    5.4     0.19270871       -79.1840730167 -6.50E-01
   446 Broy./Diag. 0.10E+00    5.4     0.26432648       -79.1999166279 -1.58E-02
   447 Broy./Diag. 0.10E+00    5.4     0.11341485       -78.7101354835  4.90E-01
   448 Broy./Diag. 0.10E+00    5.6     0.04573935       -78.5926275941  1.18E-01
   449 Broy./Diag. 0.10E+00    5.8     0.03977983       -78.5923148085  3.13E-04
   450 Broy./Diag. 0.10E+00    5.9     0.02984060       -78.5816948340  1.06E-02
   451 Broy./Diag. 0.10E+00    5.8     0.03798766       -78.5749829498  6.71E-03
   452 Broy./Diag. 0.10E+00    5.7     0.07957939       -78.5368473356  3.81E-02
   453 Broy./Diag. 0.10E+00    5.6     0.03336712       -78.6830042067 -1.46E-01
   454 Broy./Diag. 0.10E+00    5.5     0.05354158       -78.6772672417  5.74E-03
   455 Broy./Diag. 0.10E+00    5.6     0.02320501       -78.5063479337  1.71E-01
   456 Broy./Diag. 0.10E+00    5.5     0.01684457       -78.4763855705  3.00E-02
   457 Broy./Diag. 0.10E+00    5.5     0.02241274       -78.5344955897 -5.81E-02
   458 Broy./Diag. 0.10E+00    5.4     0.01583649       -78.5778874352 -4.34E-02
   459 Broy./Diag. 0.10E+00    5.4     0.00852964       -78.6006868841 -2.28E-02
   460 Broy./Diag. 0.10E+00    5.4     0.02456435       -78.6031477964 -2.46E-03
   461 Broy./Diag. 0.10E+00    5.4     0.01141907       -78.5427088116  6.04E-02
   462 Broy./Diag. 0.10E+00    5.5     0.00699343       -78.5269409531  1.58E-02
   463 Broy./Diag. 0.10E+00    5.5     0.00767257       -78.5182972053  8.64E-03
   464 Broy./Diag. 0.10E+00    5.5     0.01096212       -78.5027542281  1.55E-02
   465 Broy./Diag. 0.10E+00    5.6     0.00712026       -78.4855448333  1.72E-02
   466 Broy./Diag. 0.10E+00    5.7     0.01208927       -78.4788176000  6.73E-03
   467 Broy./Diag. 0.10E+00    5.6     0.00581997       -78.4644258194  1.44E-02
   468 Broy./Diag. 0.10E+00    5.8     0.02756460       -78.4770088869 -1.26E-02
   469 Broy./Diag. 0.10E+00    5.6     0.02015956       -78.5426663731 -6.57E-02
   470 Broy./Diag. 0.10E+00    5.6     0.00582961       -78.5694173163 -2.68E-02
   471 Broy./Diag. 0.10E+00    5.5     0.00776881       -78.5519125540  1.75E-02
   472 Broy./Diag. 0.10E+00    5.5     0.01183444       -78.5268786101  2.50E-02
   473 Broy./Diag. 0.10E+00    5.5     0.00864754       -78.4958460122  3.10E-02
   474 Broy./Diag. 0.10E+00    5.4     0.01680117       -78.4925077471  3.34E-03
   475 Broy./Diag. 0.10E+00    5.4     0.01997354       -78.5359067822 -4.34E-02
   476 Broy./Diag. 0.10E+00    5.4     0.01302499       -78.5797436267 -4.38E-02
   477 Broy./Diag. 0.10E+00    5.4     0.00752717       -78.5982850002 -1.85E-02
   478 Broy./Diag. 0.10E+00    5.4     0.00539660       -78.5946258129  3.66E-03
   479 Broy./Diag. 0.10E+00    5.7     0.00508431       -78.5826120070  1.20E-02
   480 Broy./Diag. 0.10E+00    5.8     0.01806851       -78.5757638184  6.85E-03
   481 Broy./Diag. 0.10E+00    5.8     0.00688261       -78.5408587160  3.49E-02
   482 Broy./Diag. 0.10E+00    5.8     0.01296822       -78.5318493433  9.01E-03
   483 Broy./Diag. 0.10E+00    5.6     0.01059479       -78.5107300981  2.11E-02
   484 Broy./Diag. 0.10E+00    5.6     0.00600144       -78.4963786346  1.44E-02
   485 Broy./Diag. 0.10E+00    5.6     0.01808047       -78.5008000300 -4.42E-03
   486 Broy./Diag. 0.10E+00    5.6     0.01503591       -78.5424883616 -4.17E-02
   487 Broy./Diag. 0.10E+00    5.4     0.02907298       -78.4992601930  4.32E-02
   488 Broy./Diag. 0.10E+00    5.4     0.02021740       -78.4391579813  6.01E-02
   489 Broy./Diag. 0.10E+00    5.5     0.00726069       -78.4127335761  2.64E-02
   490 Broy./Diag. 0.10E+00    5.5     0.01322384       -78.4356769126 -2.29E-02
   491 Broy./Diag. 0.10E+00    5.7     0.00243255       -78.4678131916 -3.21E-02
   492 Broy./Diag. 0.10E+00    5.9     0.00290362       -78.4657892188  2.02E-03
   493 Broy./Diag. 0.10E+00    5.7     0.03539528       -78.4726606667 -6.87E-03
   494 Broy./Diag. 0.10E+00    5.7     0.01277803       -78.5472513828 -7.46E-02
   495 Broy./Diag. 0.10E+00    5.7     0.04999614       -78.5484087927 -1.16E-03
   496 Broy./Diag. 0.10E+00    5.6     0.05676738       -78.4318211609  1.17E-01
   497 Broy./Diag. 0.10E+00    5.6     0.03062938       -78.3158900701  1.16E-01
   498 Broy./Diag. 0.10E+00    5.5     0.07180928       -78.3537763522 -3.79E-02
   499 Broy./Diag. 0.10E+00    5.4     0.06806348       -78.5340972920 -1.80E-01
   500 Broy./Diag. 0.10E+00    5.5     0.04240072       -78.6617594135 -1.28E-01

  Leaving inner SCF loop after reaching   500 steps.


  Electronic density on regular grids:         -8.6755138906        3.3244861094
  Core density on regular grids:               12.0000000000        0.0000000000
  Hard and soft densities (Lebedev):          -23.8180174905      -20.4928930034
  Total Rho_soft + Rho1_hard - Rho1_soft      -12.0006383777
  Total charge density (r-space):              -0.0006383777
  Total Rho_soft + Rho0_soft (g-space):        -0.0006384555

  Overlap energy of the core charge distribution:               0.00004803627663
  Self energy of the core charge distribution:                -64.05191455199152
  Core Hamiltonian energy:                                    -14.11483731135331
  Hartree energy:                                              17.15317245331786
  Exchange-correlation energy:                                 -2.94833185336245
  Hartree-Fock Exchange energy:                                -2.54169340776113

  GAPW| Exc from hard and soft atomic rho1:                    -5.07743958969524
  GAPW| local Eh = 1 center integrals:                         -7.08076318891093

  Total energy:                                               -78.66175941348010

 *******************************************************************************
 *   ___                                                                       *
 *  /   \                                                                      *
 * [ABORT]                                                                     *
 *  \___/     SCF run NOT converged. To continue the calculation regardless,   *
 *    |             please set the keyword IGNORE_CONVERGENCE_FAILURE.         *
 *  O/|                                                                        *
 * /| |                                                                        *
 * / \                                                            qs_scf.F:611 *
 *******************************************************************************


 ===== Routine Calling Stack ===== 

            3 scf_env_do_scf
            2 qs_energies
            1 CP2K

 *******************************************************************************
 *   ___                                                                       *
 *  /   \                                                                      *
 * [ABORT]                                                                     *
 *  \___/     SCF run NOT converged. To continue the calculation regardless,   *
 *    |             please set the keyword IGNORE_CONVERGENCE_FAILURE.         *
 *  O/|                                                                        *
 * /| |                                                                        *
 * / \                                                            qs_scf.F:611 *
 *******************************************************************************


 ===== Routine Calling Stack ===== 

            3 scf_env_do_scf
            2 qs_energies
            1 CP2K

 *******************************************************************************
 *   ___                                                                       *
 *  /   \                                                                      *
 * [ABORT]                                                                     *
 *  \___/     SCF run NOT converged. To continue the calculation regardless,   *
 *    |             please set the keyword IGNORE_CONVERGENCE_FAILURE.         *
 *  O/|                                                                        *
 * /| |                                                                        *
 * / \                                                            qs_scf.F:611 *
 *******************************************************************************


 ===== Routine Calling Stack ===== 

            3 scf_env_do_scf
            2 qs_energies
            1 CP2K

 *******************************************************************************
 *   ___                                                                       *
 *  /   \                                                                      *
 * [ABORT]                                                                     *
 *  \___/     SCF run NOT converged. To continue the calculation regardless,   *
 *    |             please set the keyword IGNORE_CONVERGENCE_FAILURE.         *
 *  O/|                                                                        *
 * /| |                                                                        *
 * / \                                                            qs_scf.F:611 *
 *******************************************************************************


 ===== Routine Calling Stack ===== 

            3 scf_env_do_scf
            2 qs_energies
            1 CP2K

 *******************************************************************************
 *   ___                                                                       *
 *  /   \                                                                      *
 * [ABORT]                                                                     *
 *  \___/     SCF run NOT converged. To continue the calculation regardless,   *
 *    |             please set the keyword IGNORE_CONVERGENCE_FAILURE.         *
 *  O/|                                                                        *
 * /| |                                                                        *
 * / \                                                            qs_scf.F:611 *
 *******************************************************************************


 ===== Routine Calling Stack ===== 

            3 scf_env_do_scf
            2 qs_energies
            1 CP2K

 *******************************************************************************
 *   ___                                                                       *
 *  /   \                                                                      *
 * [ABORT]                                                                     *
 *  \___/     SCF run NOT converged. To continue the calculation regardless,   *
 *    |             please set the keyword IGNORE_CONVERGENCE_FAILURE.         *
 *  O/|                                                                        *
 * /| |                                                                        *
 * / \                                                            qs_scf.F:611 *
 *******************************************************************************


 ===== Routine Calling Stack ===== 

            3 scf_env_do_scf
            2 qs_energies
            1 CP2K

 *******************************************************************************
 *   ___                                                                       *
 *  /   \                                                                      *
 * [ABORT]                                                                     *
 *  \___/     SCF run NOT converged. To continue the calculation regardless,   *
 *    |             please set the keyword IGNORE_CONVERGENCE_FAILURE.         *
 *  O/|                                                                        *
 * /| |                                                                        *
 * / \                                                            qs_scf.F:611 *
 *******************************************************************************


 ===== Routine Calling Stack ===== 

            3 scf_env_do_scf
            2 qs_energies
            1 CP2K

 *******************************************************************************
 *   ___                                                                       *
 *  /   \                                                                      *
 * [ABORT]                                                                     *
 *  \___/     SCF run NOT converged. To continue the calculation regardless,   *
 *    |             please set the keyword IGNORE_CONVERGENCE_FAILURE.         *
 *  O/|                                                                        *
 * /| |                                                                        *
 * / \                                                            qs_scf.F:611 *
 *******************************************************************************


 ===== Routine Calling Stack ===== 

            3 scf_env_do_scf
            2 qs_energies
            1 CP2K

 *******************************************************************************
 *   ___                                                                       *
 *  /   \                                                                      *
 * [ABORT]                                                                     *
 *  \___/     SCF run NOT converged. To continue the calculation regardless,   *
 *    |             please set the keyword IGNORE_CONVERGENCE_FAILURE.         *
 *  O/|                                                                        *
 * /| |                                                                        *
 * / \                                                            qs_scf.F:611 *
 *******************************************************************************


 ===== Routine Calling Stack ===== 

            3 scf_env_do_scf
            2 qs_energies
            1 CP2K

 *******************************************************************************
 *   ___                                                                       *
 *  /   \                                                                      *
 * [ABORT]                                                                     *
 *  \___/     SCF run NOT converged. To continue the calculation regardless,   *
 *    |             please set the keyword IGNORE_CONVERGENCE_FAILURE.         *
 *  O/|                                                                        *
 * /| |                                                                        *
 * / \                                                            qs_scf.F:611 *
 *******************************************************************************


 ===== Routine Calling Stack ===== 

            3 scf_env_do_scf
            2 qs_energies
            1 CP2K

 *******************************************************************************
 *   ___                                                                       *
 *  /   \                                                                      *
 * [ABORT]                                                                     *
 *  \___/     SCF run NOT converged. To continue the calculation regardless,   *
 *    |             please set the keyword IGNORE_CONVERGENCE_FAILURE.         *
 *  O/|                                                                        *
 * /| |                                                                        *
 * / \                                                            qs_scf.F:611 *
 *******************************************************************************


 ===== Routine Calling Stack ===== 

            3 scf_env_do_scf
            2 qs_energies
            1 CP2K

 *******************************************************************************
 *   ___                                                                       *
 *  /   \                                                                      *
 * [ABORT]                                                                     *
 *  \___/     SCF run NOT converged. To continue the calculation regardless,   *
 *    |             please set the keyword IGNORE_CONVERGENCE_FAILURE.         *
 *  O/|                                                                        *
 * /| |                                                                        *
 * / \                                                            qs_scf.F:611 *
 *******************************************************************************


 ===== Routine Calling Stack ===== 

            3 scf_env_do_scf
            2 qs_energies
            1 CP2K

 *******************************************************************************
 *   ___                                                                       *
 *  /   \                                                                      *
 * [ABORT]                                                                     *
 *  \___/     SCF run NOT converged. To continue the calculation regardless,   *
 *    |             please set the keyword IGNORE_CONVERGENCE_FAILURE.         *
 *  O/|                                                                        *
 * /| |                                                                        *
 * / \                                                            qs_scf.F:611 *
 *******************************************************************************


 ===== Routine Calling Stack ===== 

            3 scf_env_do_scf
            2 qs_energies
            1 CP2K
