 DBCSR| CPU Multiplication driver                                           BLAS (U)
 DBCSR| Multrec recursion limit                                              512 (U)
 DBCSR| Multiplication stack size                                           1000 (D)
 DBCSR| Maximum elements for images                                    UNLIMITED (U)
 DBCSR| Multiplicative factor virtual images                                   1 (U)
 DBCSR| Use multiplication densification                                       T (D)
 DBCSR| Multiplication size stacks                                             3 (U)
 DBCSR| Use memory pool for CPU allocation                                     F (U)
 DBCSR| Number of 3D layers                                               SINGLE (U)
 DBCSR| Use MPI memory allocation                                              F (U)
 DBCSR| Use RMA algorithm                                                      F (U)
 DBCSR| Use Communication thread                                               T (U)
 DBCSR| Communication thread load                                             75 (D)
 DBCSR| MPI: My process id                                                     0
 DBCSR| MPI: Number of processes                                              48
 DBCSR| OMP: Current number of threads                                         4
 DBCSR| OMP: Max number of threads                                             4
 DBCSR| Split modifier for TAS multiplication algorithm                  1.0E+00 (U)


  **** **** ******  **  PROGRAM STARTED AT               2025-03-19 00:58:24.020
 ***** ** ***  *** **   PROGRAM STARTED ON                          i01r11c04s02
 **    ****   ******    PROGRAM STARTED BY                               di38fab
 ***** **    ** ** **   PROGRAM PROCESS ID                               1784612
  **** **  *******  **  PROGRAM STARTED IN /hppfs/scratch/04/di38fab/05_MOL/W4-1
                                           1+ALK/bn3pi/aug-cc-pVTZ/GW+BSE

 CP2K| version string:                 CP2K version 2025.1 (Development Version)
 CP2K| source code revision number:                                  git:d2e611a
 CP2K| cp2kflags: omp libint fftw3 libxc parallel scalapack max_contr=4         
 CP2K| is freely available from                            https://www.cp2k.org/
 CP2K| Program compiled at                       Thu 06 Mar 2025 05:09:20 PM CET
 CP2K| Program compiled on                                               login02
 CP2K| Program compiled for                                        Supermuc-foss
 CP2K| Data directory path                  /hppfs/work/pn36zo/di38fab/cp2k/data
 CP2K| Input file name                                                    GW.inp

 GLOBAL| Force Environment number                                              1
 GLOBAL| Basis set file name            /hppfs/scratch/04/di38fab/04_TMD/BASIS_A
 GLOBAL| Potential file name            /hppfs/work/pn36zo/di38fab/cp2k/data/ALL
 GLOBAL| MM Potential file name                                     MM_POTENTIAL
 GLOBAL| Coordinate file name                                      __STD_INPUT__
 GLOBAL| Method name                                                        CP2K
 GLOBAL| Project name                                                       MoS2
 GLOBAL| Run type                                                         ENERGY
 GLOBAL| FFT library                                                       FFTW3
 GLOBAL| Diagonalization library                                       ScaLAPACK
 GLOBAL| DGEMM library                                                      BLAS
 GLOBAL| Orthonormality check for eigenvectors                          DISABLED
 GLOBAL| Matrix multiplication library                                 ScaLAPACK
 GLOBAL| All-to-all communication in single precision                          F
 GLOBAL| FFTs using library dependent lengths                                  F
 GLOBAL| Grid backend                                                       AUTO
 GLOBAL| Global print level                                               MEDIUM
 GLOBAL| MPI I/O enabled                                                       T
 GLOBAL| Total number of message passing processes                            48
 GLOBAL| Number of threads for this process                                    4
 GLOBAL| This output is from process                                           0
 GLOBAL| OpenMP stack size per thread (OMP_STACKSIZE)                    default
 GLOBAL| CPU model name             Intel(R) Xeon(R) Platinum 8174 CPU @ 3.10GHz

 MEMORY| system memory details [Kb]
 MEMORY|                        rank 0           min           max       average
 MEMORY| MemTotal             98436664      98436664      98436708      98436675
 MEMORY| MemFree              84091776      83956960      84091776      84007767
 MEMORY| Buffers                     0             0             0             0
 MEMORY| Cached                2406488       2406488       2421712       2413923
 MEMORY| Slab                  1241628       1221104       1247624       1237728
 MEMORY| SReclaimable           277640        269960        285472        275871
 MEMORY| MemLikelyFree        86775904      86639908      86775904      86697561


 *** Fundamental physical constants (SI units) ***

 *** Literature: B. J. Mohr and B. N. Taylor,
 ***             CODATA recommended values of the fundamental physical
 ***             constants: 2006, Web Version 5.1
 ***             http://physics.nist.gov/constants

 Speed of light in vacuum [m/s]                             2.99792458000000E+08
 Magnetic constant or permeability of vacuum [N/A**2]       1.25663706143592E-06
 Electric constant or permittivity of vacuum [F/m]          8.85418781762039E-12
 Planck constant (h) [J*s]                                  6.62606896000000E-34
 Planck constant (h-bar) [J*s]                              1.05457162825177E-34
 Elementary charge [C]                                      1.60217648700000E-19
 Electron mass [kg]                                         9.10938215000000E-31
 Electron g factor [ ]                                     -2.00231930436220E+00
 Proton mass [kg]                                           1.67262163700000E-27
 Fine-structure constant                                    7.29735253760000E-03
 Rydberg constant [1/m]                                     1.09737315685270E+07
 Avogadro constant [1/mol]                                  6.02214179000000E+23
 Boltzmann constant [J/K]                                   1.38065040000000E-23
 Atomic mass unit [kg]                                      1.66053878200000E-27
 Bohr radius [m]                                            5.29177208590000E-11

 *** Conversion factors ***

 [u] -> [a.u.]                                              1.82288848426455E+03
 [Angstrom] -> [Bohr] = [a.u.]                              1.88972613288564E+00
 [a.u.] = [Bohr] -> [Angstrom]                              5.29177208590000E-01
 [a.u.] -> [s]                                              2.41888432650478E-17
 [a.u.] -> [fs]                                             2.41888432650478E-02
 [a.u.] -> [J]                                              4.35974393937059E-18
 [a.u.] -> [N]                                              8.23872205491840E-08
 [a.u.] -> [K]                                              3.15774647902944E+05
 [a.u.] -> [kJ/mol]                                         2.62549961709828E+03
 [a.u.] -> [kcal/mol]                                       6.27509468713739E+02
 [a.u.] -> [Pa]                                             2.94210107994716E+13
 [a.u.] -> [bar]                                            2.94210107994716E+08
 [a.u.] -> [atm]                                            2.90362800883016E+08
 [a.u.] -> [eV]                                             2.72113838565563E+01
 [a.u.] -> [Hz]                                             6.57968392072181E+15
 [a.u.] -> [1/cm] (wave numbers)                            2.19474631370540E+05
 [a.u./Bohr**2] -> [1/cm]                                   5.14048714338585E+03
 

 CELL_TOP| Volume [angstrom^3]:                                     27000.000000
 CELL_TOP| Vector a [angstrom    30.000     0.000     0.000   |a| =    30.000000
 CELL_TOP| Vector b [angstrom     0.000    30.000     0.000   |b| =    30.000000
 CELL_TOP| Vector c [angstrom     0.000     0.000    30.000   |c| =    30.000000
 CELL_TOP| Angle (b,c), alpha [degree]:                                90.000000
 CELL_TOP| Angle (a,c), beta  [degree]:                                90.000000
 CELL_TOP| Angle (a,b), gamma [degree]:                                90.000000
 CELL_TOP| Numerically orthorhombic:                                         YES
 CELL_TOP| Periodicity                                                      NONE

 GENERATE|  Preliminary Number of Bonds generated:                             0
 GENERATE|  Achieved consistency in connectivity generation.

 CELL| Volume [angstrom^3]:                                         27000.000000
 CELL| Vector a [angstrom]:      30.000     0.000     0.000   |a| =    30.000000
 CELL| Vector b [angstrom]:       0.000    30.000     0.000   |b| =    30.000000
 CELL| Vector c [angstrom]:       0.000     0.000    30.000   |c| =    30.000000
 CELL| Angle (b,c), alpha [degree]:                                    90.000000
 CELL| Angle (a,c), beta  [degree]:                                    90.000000
 CELL| Angle (a,b), gamma [degree]:                                    90.000000
 CELL| Numerically orthorhombic:                                             YES
 CELL| Periodicity                                                          NONE

 CELL_REF| Volume [angstrom^3]:                                     27000.000000
 CELL_REF| Vector a [angstrom    30.000     0.000     0.000   |a| =    30.000000
 CELL_REF| Vector b [angstrom     0.000    30.000     0.000   |b| =    30.000000
 CELL_REF| Vector c [angstrom     0.000     0.000    30.000   |c| =    30.000000
 CELL_REF| Angle (b,c), alpha [degree]:                                90.000000
 CELL_REF| Angle (a,c), beta  [degree]:                                90.000000
 CELL_REF| Angle (a,b), gamma [degree]:                                90.000000
 CELL_REF| Numerically orthorhombic:                                         YES
 CELL_REF| Periodicity                                                      NONE

 *******************************************************************************
 *******************************************************************************
 **                                                                           **
 **     #####                         ##              ##                      **
 **    ##   ##            ##          ##              ##                      **
 **   ##     ##                       ##            ######                    **
 **   ##     ##  ##   ##  ##   #####  ##  ##   ####   ##    #####    #####    **
 **   ##     ##  ##   ##  ##  ##      ## ##   ##      ##   ##   ##  ##   ##   **
 **   ##  ## ##  ##   ##  ##  ##      ####     ###    ##   ######   ######    **
 **    ##  ###   ##   ##  ##  ##      ## ##      ##   ##   ##       ##        **
 **     #######   #####   ##   #####  ##  ##  ####    ##    #####   ##        **
 **           ##                                                    ##        **
 **                                                                           **
 **                                                ... make the atoms dance   **
 **                                                                           **
 **            Copyright (C) by CP2K developers group (2000-2025)             **
 **                      J. Chem. Phys. 152, 194103 (2020)                    **
 **                                                                           **
 *******************************************************************************

 DFT| Spin restricted Kohn-Sham (RKS) calculation                            RKS
 DFT| Multiplicity                                                             1
 DFT| Number of spin states                                                    1
 DFT| Charge                                                                   0
 DFT| Self-interaction correction (SIC)                                       NO
 DFT| Cutoffs: density                                              1.000000E-10
 DFT|          gradient                                             1.000000E-10
 DFT|          tau                                                  1.000000E-10
 DFT|          cutoff_smoothing_range                               0.000000E+00
 DFT| XC density smoothing                                                  NONE
 DFT| XC derivatives                                                          PW

 FUNCTIONAL| PBE:
 FUNCTIONAL| J.P.Perdew, K.Burke, M.Ernzerhof, Phys. Rev. Letter, vol. 77, n 18,
 FUNCTIONAL|  pp. 3865-3868, (1996)sx=0.750sc=1.000{spin unpolarized}           


 QS| Method:                                                                GAPW
 QS| Density plane wave grid type                        NON-SPHERICAL FULLSPACE
 QS| Number of grid levels:                                                    4
 QS| Density cutoff [a.u.]:                                                250.0
 QS| Multi grid cutoff [a.u.]: 1) grid level                               250.0
 QS|                           2) grid level                                83.3
 QS|                           3) grid level                                27.8
 QS|                           4) grid level                                 9.3
 QS| Grid level progression factor:                                          3.0
 QS| Relative density cutoff [a.u.]:                                        50.0
 QS| Interaction thresholds: eps_pgf_orb:                                1.0E-12
 QS|                         eps_filter_matrix:                          0.0E+00
 QS|                         eps_core_charge:                            1.0E-14
 QS|                         eps_rho_gspace:                             1.0E-12
 QS|                         eps_rho_rspace:                             1.0E-12
 QS|                         eps_gvg_rspace:                             1.0E-06
 QS|                         eps_ppl:                                    1.0E-02
 QS|                         eps_ppnl:                                   1.0E-08
 QS| GAPW|      One center basis from orbital basis primitives
 QS| GAPW|                   eps_fit:                                    1.0E-04
 QS| GAPW|                   eps_iso:                                    1.0E-12
 QS| GAPW|                   eps_svd:                                    1.0E-08
 QS| GAPW|                   eps_cpc:                                    1.0E-12
 QS| GAPW|   atom-r-grid: quadrature:                                     GC_LOG
 QS| GAPW|      atom-s-grid:  max l :                                          6
 QS| GAPW|      max_l_rho0 :                                                   2


 ATOMIC KIND INFORMATION

  1. Atomic kind: B                                     Number of atoms:       1

     Orbital Basis Set                                               aug-cc-pVTZ

       Number of orbital shell sets:                                           8
       Number of orbital shells:                                              14
       Number of primitive Cartesian functions:                               22
       Number of Cartesian basis functions:                                   55
       Number of spherical basis functions:                                   46
       Norm type:                                                              2

       Normalised Cartesian orbitals:

                        Set   Shell   Orbital            Exponent    Coefficient

                          1       1    1px               0.020960       0.011368
                          1       1    1py               0.020960       0.011368
                          1       1    1pz               0.020960       0.011368

                          2       1    1s                0.029140       0.050266

                          3       1    1dx2              0.060400       0.012112
                          3       1    1dxy              0.060400       0.020979
                          3       1    1dxz              0.060400       0.020979
                          3       1    1dy2              0.060400       0.012112
                          3       1    1dyz              0.060400       0.020979
                          3       1    1dz2              0.060400       0.012112

                          4       1    1px              12.050000       0.000000
                                                         2.613000       0.000000
                                                         0.747500       0.000000
                                                         0.238500       0.237575
                                                         0.076980       0.000000
                          4       1    1py              12.050000       0.000000
                                                         2.613000       0.000000
                                                         0.747500       0.000000
                                                         0.238500       0.237575
                                                         0.076980       0.000000
                          4       1    1pz              12.050000       0.000000
                                                         2.613000       0.000000
                                                         0.747500       0.000000
                                                         0.238500       0.237575
                                                         0.076980       0.000000

                          4       2    2px              12.050000       0.419799
                                                         2.613000       0.378346
                                                         0.747500       0.274704
                                                         0.238500       0.119802
                                                         0.076980       0.020442
                          4       2    2py              12.050000       0.419799
                                                         2.613000       0.378346
                                                         0.747500       0.274704
                                                         0.238500       0.119802
                                                         0.076980       0.020442
                          4       2    2pz              12.050000       0.419799
                                                         2.613000       0.378346
                                                         0.747500       0.274704
                                                         0.238500       0.119802
                                                         0.076980       0.020442

                          4       3    3px              12.050000       0.000000
                                                         2.613000       0.000000
                                                         0.747500       0.000000
                                                         0.238500       0.000000
                                                         0.076980       0.057798
                          4       3    3py              12.050000       0.000000
                                                         2.613000       0.000000
                                                         0.747500       0.000000
                                                         0.238500       0.000000
                                                         0.076980       0.057798
                          4       3    3pz              12.050000       0.000000
                                                         2.613000       0.000000
                                                         0.747500       0.000000
                                                         0.238500       0.000000
                                                         0.076980       0.057798

                          5       1    1s             5473.000000       0.251693
                                                       820.900000       0.469014
                                                       186.800000       0.790419
                                                        52.830000       1.179298
                                                        17.080000       1.428459
                                                         5.999000       1.188585
                                                         2.208000       0.441446
                                                         0.587900       0.017636
                                                         0.241500      -0.002344
                                                         0.086100       0.000268

                          5       2    2s             5473.000000       0.000000
                                                       820.900000       0.000000
                                                       186.800000       0.000000
                                                        52.830000       0.000000
                                                        17.080000       0.000000
                                                         5.999000       0.000000
                                                         2.208000       0.000000
                                                         0.587900       0.478506
                                                         0.241500       0.000000
                                                         0.086100       0.000000

                          5       3    3s             5473.000000      -0.050792
                                                       820.900000      -0.094874
                                                       186.800000      -0.161476
                                                        52.830000      -0.246960
                                                        17.080000      -0.321186
                                                         5.999000      -0.325113
                                                         2.208000      -0.214071
                                                         0.587900       0.057472
                                                         0.241500       0.146329
                                                         0.086100       0.046561

                          5       4    4s             5473.000000       0.000000
                                                       820.900000       0.000000
                                                       186.800000       0.000000
                                                        52.830000       0.000000
                                                        17.080000       0.000000
                                                         5.999000       0.000000
                                                         2.208000       0.000000
                                                         0.587900       0.000000
                                                         0.241500       0.000000
                                                         0.086100       0.113282

                          6       1    1fx3              0.163000       0.024853
                          6       1    1fx2y             0.163000       0.055573
                          6       1    1fx2z             0.163000       0.055573
                          6       1    1fxy2             0.163000       0.055573
                          6       1    1fxyz             0.163000       0.096255
                          6       1    1fxz2             0.163000       0.055573
                          6       1    1fy3              0.163000       0.024853
                          6       1    1fy2z             0.163000       0.055573
                          6       1    1fyz2             0.163000       0.055573
                          6       1    1fz3              0.163000       0.024853

                          7       1    1dx2              0.661000       0.797558
                                                         0.199000       0.000000
                          7       1    1dxy              0.661000       1.381410
                                                         0.199000       0.000000
                          7       1    1dxz              0.661000       1.381410
                                                         0.199000       0.000000
                          7       1    1dy2              0.661000       0.797558
                                                         0.199000       0.000000
                          7       1    1dyz              0.661000       1.381410
                                                         0.199000       0.000000
                          7       1    1dz2              0.661000       0.797558
                                                         0.199000       0.000000

                          7       2    2dx2              0.661000       0.000000
                                                         0.199000       0.097589
                          7       2    2dxy              0.661000       0.000000
                                                         0.199000       0.169030
                          7       2    2dxz              0.661000       0.000000
                                                         0.199000       0.169030
                          7       2    2dy2              0.661000       0.000000
                                                         0.199000       0.097589
                          7       2    2dyz              0.661000       0.000000
                                                         0.199000       0.169030
                          7       2    2dz2              0.661000       0.000000
                                                         0.199000       0.097589

                          8       1    1fx3              0.490000       0.295730
                          8       1    1fx2y             0.490000       0.661273
                          8       1    1fx2z             0.490000       0.661273
                          8       1    1fxy2             0.490000       0.661273
                          8       1    1fxyz             0.490000       1.145358
                          8       1    1fxz2             0.490000       0.661273
                          8       1    1fy3              0.490000       0.295730
                          8       1    1fy2z             0.490000       0.661273
                          8       1    1fyz2             0.490000       0.661273
                          8       1    1fz3              0.490000       0.295730

     RI Auxiliary Basis Set                                    aug-cc-pVTZ-OPTRI

       Number of orbital shell sets:                                          18
       Number of orbital shells:                                              18
       Number of primitive Cartesian functions:                               18
       Number of Cartesian basis functions:                                  103
       Number of spherical basis functions:                                   78
       Norm type:                                                              2

       Normalised Cartesian orbitals:

                        Set   Shell   Orbital            Exponent    Coefficient

                          1       1    1px               0.040116       0.025591
                          1       1    1py               0.040116       0.025591
                          1       1    1pz               0.040116       0.025591

                          2       1    1s                0.046164       0.070980

                          3       1    1dx2              0.090864       0.024751
                          3       1    1dxy              0.090864       0.042870
                          3       1    1dxz              0.090864       0.042870
                          3       1    1dy2              0.090864       0.024751
                          3       1    1dyz              0.090864       0.042870
                          3       1    1dz2              0.090864       0.024751

                          4       1    1px               0.115608       0.096089
                          4       1    1py               0.115608       0.096089
                          4       1    1pz               0.115608       0.096089

                          5       1    1s                0.244788       0.248029

                          6       1    1fx3              0.270071       0.077407
                          6       1    1fx2y             0.270071       0.173087
                          6       1    1fx2z             0.270071       0.173087
                          6       1    1fxy2             0.270071       0.173087
                          6       1    1fxyz             0.270071       0.299796
                          6       1    1fxz2             0.270071       0.173087
                          6       1    1fy3              0.270071       0.077407
                          6       1    1fy2z             0.270071       0.173087
                          6       1    1fyz2             0.270071       0.173087
                          6       1    1fz3              0.270071       0.077407

                          7       1    1gx4              0.375331       0.075175
                          7       1    1gx3y             0.375331       0.198895
                          7       1    1gx3z             0.375331       0.198895
                          7       1    1gx2y2            0.375331       0.256773
                          7       1    1gx2yz            0.375331       0.444743
                          7       1    1gx2z2            0.375331       0.256773
                          7       1    1gxy3             0.375331       0.198895
                          7       1    1gxy2z            0.375331       0.444743
                          7       1    1gxyz2            0.375331       0.444743
                          7       1    1gxz3             0.375331       0.198895
                          7       1    1gy4              0.375331       0.075175
                          7       1    1gy3z             0.375331       0.198895
                          7       1    1gy2z2            0.375331       0.256773
                          7       1    1gyz3             0.375331       0.198895
                          7       1    1gz4              0.375331       0.075175

                          8       1    1dx2              0.393664       0.322017
                          8       1    1dxy              0.393664       0.557751
                          8       1    1dxz              0.393664       0.557751
                          8       1    1dy2              0.393664       0.322017
                          8       1    1dyz              0.393664       0.557751
                          8       1    1dz2              0.393664       0.322017

                          9       1    1px               0.419074       0.480622
                          9       1    1py               0.419074       0.480622
                          9       1    1pz               0.419074       0.480622

                         10       1    1px               0.752855       0.999607
                         10       1    1py               0.752855       0.999607
                         10       1    1pz               0.752855       0.999607

                         11       1    1fx3              0.878780       1.100740
                         11       1    1fx2y             0.878780       2.461330
                         11       1    1fx2z             0.878780       2.461330
                         11       1    1fxy2             0.878780       2.461330
                         11       1    1fxyz             0.878780       4.263148
                         11       1    1fxz2             0.878780       2.461330
                         11       1    1fy3              0.878780       1.100740
                         11       1    1fy2z             0.878780       2.461330
                         11       1    1fyz2             0.878780       2.461330
                         11       1    1fz3              0.878780       1.100740

                         12       1    1s                0.880079       0.647592

                         13       1    1gx4              1.022372       1.182660
                         13       1    1gx3y             1.022372       3.129025
                         13       1    1gx3z             1.022372       3.129025
                         13       1    1gx2y2            1.022372       4.039554
                         13       1    1gx2yz            1.022372       6.996713
                         13       1    1gx2z2            1.022372       4.039554
                         13       1    1gxy3             1.022372       3.129025
                         13       1    1gxy2z            1.022372       6.996713
                         13       1    1gxyz2            1.022372       6.996713
                         13       1    1gxz3             1.022372       3.129025
                         13       1    1gy4              1.022372       1.182660
                         13       1    1gy3z             1.022372       3.129025
                         13       1    1gy2z2            1.022372       4.039554
                         13       1    1gyz3             1.022372       3.129025
                         13       1    1gz4              1.022372       1.182660

                         14       1    1dx2              1.397498       2.956474
                         14       1    1dxy              1.397498       5.120763
                         14       1    1dxz              1.397498       5.120763
                         14       1    1dy2              1.397498       2.956474
                         14       1    1dyz              1.397498       5.120763
                         14       1    1dz2              1.397498       2.956474

                         15       1    1fx3              1.884032       6.122137
                         15       1    1fx2y             1.884032      13.689515
                         15       1    1fx2z             1.884032      13.689515
                         15       1    1fxy2             1.884032      13.689515
                         15       1    1fxyz             1.884032      23.710936
                         15       1    1fxz2             1.884032      13.689515
                         15       1    1fy3              1.884032       6.122137
                         15       1    1fy2z             1.884032      13.689515
                         15       1    1fyz2             1.884032      13.689515
                         15       1    1fz3              1.884032       6.122137

                         16       1    1s                2.267148       1.316801

                         17       1    1px               2.484142       4.445398
                         17       1    1py               2.484142       4.445398
                         17       1    1pz               2.484142       4.445398

                         18       1    1dx2              4.847375      26.064298
                         18       1    1dxy              4.847375      45.144689
                         18       1    1dxz              4.847375      45.144689
                         18       1    1dy2              4.847375      26.064298
                         18       1    1dyz              4.847375      45.144689
                         18       1    1dz2              4.847375      26.064298

       Atomic covalent radius [Angstrom]:                                  0.820

       Atomic van der Waals radius [Angstrom]:                             1.920

     The atoms of this atomic kind are PAW atoms (GAPW):
       Hard Gaussian function radius:                                      1.512
       Rho0 radius:                                                        1.512
       Maximum GTO radius used for PAW projector construction:            24.566

     GAPW Soft Basis Set                                        aug-cc-pVTZ_soft

       Number of orbital shell sets:                                           8
       Number of orbital shells:                                              14
       Number of primitive Cartesian functions:                               15
       Number of Cartesian basis functions:                                   55
       Number of spherical basis functions:                                   46
       Norm type:                                                              2

       Normalised Cartesian orbitals:

                        Set   Shell   Orbital            Exponent    Coefficient

                          1       1    1px               0.020960       0.011368
                          1       1    1py               0.020960       0.011368
                          1       1    1pz               0.020960       0.011368

                          2       1    1s                0.029140       0.050266

                          3       1    1dx2              0.060400       0.012112
                          3       1    1dxy              0.060400       0.020979
                          3       1    1dxz              0.060400       0.020979
                          3       1    1dy2              0.060400       0.012112
                          3       1    1dyz              0.060400       0.020979
                          3       1    1dz2              0.060400       0.012112

                          4       1    1px               2.613000       0.000000
                                                         0.747500       0.000000
                                                         0.238500       0.237575
                                                         0.076980       0.000000
                          4       1    1py               2.613000       0.000000
                                                         0.747500       0.000000
                                                         0.238500       0.237575
                                                         0.076980       0.000000
                          4       1    1pz               2.613000       0.000000
                                                         0.747500       0.000000
                                                         0.238500       0.237575
                                                         0.076980       0.000000

                          4       2    2px               2.613000       0.378346
                                                         0.747500       0.274704
                                                         0.238500       0.119802
                                                         0.076980       0.020442
                          4       2    2py               2.613000       0.378346
                                                         0.747500       0.274704
                                                         0.238500       0.119802
                                                         0.076980       0.020442
                          4       2    2pz               2.613000       0.378346
                                                         0.747500       0.274704
                                                         0.238500       0.119802
                                                         0.076980       0.020442

                          4       3    3px               2.613000       0.000000
                                                         0.747500       0.000000
                                                         0.238500       0.000000
                                                         0.076980       0.057798
                          4       3    3py               2.613000       0.000000
                                                         0.747500       0.000000
                                                         0.238500       0.000000
                                                         0.076980       0.057798
                          4       3    3pz               2.613000       0.000000
                                                         0.747500       0.000000
                                                         0.238500       0.000000
                                                         0.076980       0.057798

                          5       1    1s                2.208000       0.441446
                                                         0.587900       0.017636
                                                         0.241500      -0.002344
                                                         0.086100       0.000268

                          5       2    2s                2.208000       0.000000
                                                         0.587900       0.478506
                                                         0.241500       0.000000
                                                         0.086100       0.000000

                          5       3    3s                2.208000      -0.214071
                                                         0.587900       0.057472
                                                         0.241500       0.146329
                                                         0.086100       0.046561

                          5       4    4s                2.208000       0.000000
                                                         0.587900       0.000000
                                                         0.241500       0.000000
                                                         0.086100       0.113282

                          6       1    1fx3              0.163000       0.024853
                          6       1    1fx2y             0.163000       0.055573
                          6       1    1fx2z             0.163000       0.055573
                          6       1    1fxy2             0.163000       0.055573
                          6       1    1fxyz             0.163000       0.096255
                          6       1    1fxz2             0.163000       0.055573
                          6       1    1fy3              0.163000       0.024853
                          6       1    1fy2z             0.163000       0.055573
                          6       1    1fyz2             0.163000       0.055573
                          6       1    1fz3              0.163000       0.024853

                          7       1    1dx2              0.661000       0.797558
                                                         0.199000       0.000000
                          7       1    1dxy              0.661000       1.381410
                                                         0.199000       0.000000
                          7       1    1dxz              0.661000       1.381410
                                                         0.199000       0.000000
                          7       1    1dy2              0.661000       0.797558
                                                         0.199000       0.000000
                          7       1    1dyz              0.661000       1.381410
                                                         0.199000       0.000000
                          7       1    1dz2              0.661000       0.797558
                                                         0.199000       0.000000

                          7       2    2dx2              0.661000       0.000000
                                                         0.199000       0.097589
                          7       2    2dxy              0.661000       0.000000
                                                         0.199000       0.169030
                          7       2    2dxz              0.661000       0.000000
                                                         0.199000       0.169030
                          7       2    2dy2              0.661000       0.000000
                                                         0.199000       0.097589
                          7       2    2dyz              0.661000       0.000000
                                                         0.199000       0.169030
                          7       2    2dz2              0.661000       0.000000
                                                         0.199000       0.097589

                          8       1    1fx3              0.490000       0.295730
                          8       1    1fx2y             0.490000       0.661273
                          8       1    1fx2z             0.490000       0.661273
                          8       1    1fxy2             0.490000       0.661273
                          8       1    1fxyz             0.490000       1.145358
                          8       1    1fxz2             0.490000       0.661273
                          8       1    1fy3              0.490000       0.295730
                          8       1    1fy2z             0.490000       0.661273
                          8       1    1fyz2             0.490000       0.661273
                          8       1    1fz3              0.490000       0.295730

     AE Potential information for                                            ALL

       Description:                                       All-electron potential
                                          Krack, Parrinello, PCCP 2, 2105 (2000)

       Gaussian exponent of the core charge distribution:               2.655410
       Electronic configuration (s p d ...):                           4   1   0

  2. Atomic kind: N                                     Number of atoms:       1

     Orbital Basis Set                                               aug-cc-pVTZ

       Number of orbital shell sets:                                           8
       Number of orbital shells:                                              14
       Number of primitive Cartesian functions:                               22
       Number of Cartesian basis functions:                                   55
       Number of spherical basis functions:                                   46
       Norm type:                                                              2

       Normalised Cartesian orbitals:

                        Set   Shell   Orbital            Exponent    Coefficient

                          1       1    1px               0.049100       0.032945
                          1       1    1py               0.049100       0.032945
                          1       1    1pz               0.049100       0.032945

                          2       1    1s                0.057600       0.083797

                          3       1    1dx2              0.151000       0.060203
                          3       1    1dxy              0.151000       0.104275
                          3       1    1dxz              0.151000       0.104275
                          3       1    1dy2              0.151000       0.060203
                          3       1    1dyz              0.151000       0.104275
                          3       1    1dz2              0.151000       0.060203

                          4       1    1px              26.630000       0.000000
                                                         5.948000       0.000000
                                                         1.742000       0.000000
                                                         0.555000       0.682820
                                                         0.172500       0.000000
                          4       1    1py              26.630000       0.000000
                                                         5.948000       0.000000
                                                         1.742000       0.000000
                                                         0.555000       0.682820
                                                         0.172500       0.000000
                          4       1    1pz              26.630000       0.000000
                                                         5.948000       0.000000
                                                         1.742000       0.000000
                                                         0.555000       0.682820
                                                         0.172500       0.000000

                          4       2    2px              26.630000       1.264982
                                                         5.948000       1.215000
                                                         1.742000       0.852042
                                                         0.555000       0.340377
                                                         0.172500       0.053406
                          4       2    2py              26.630000       1.264982
                                                         5.948000       1.215000
                                                         1.742000       0.852042
                                                         0.555000       0.340377
                                                         0.172500       0.053406
                          4       2    2pz              26.630000       1.264982
                                                         5.948000       1.215000
                                                         1.742000       0.852042
                                                         0.555000       0.340377
                                                         0.172500       0.053406

                          4       3    3px              26.630000       0.000000
                                                         5.948000       0.000000
                                                         1.742000       0.000000
                                                         0.555000       0.000000
                                                         0.172500       0.158462
                          4       3    3py              26.630000       0.000000
                                                         5.948000       0.000000
                                                         1.742000       0.000000
                                                         0.555000       0.000000
                                                         0.172500       0.158462
                          4       3    3pz              26.630000       0.000000
                                                         5.948000       0.000000
                                                         1.742000       0.000000
                                                         0.555000       0.000000
                                                         0.172500       0.158462

                          5       1    1s            11420.000000       0.411776
                                                      1712.000000       0.767284
                                                       389.300000       1.297670
                                                       110.000000       1.954219
                                                        35.570000       2.419449
                                                        12.540000       2.058842
                                                         4.644000       0.783427
                                                         1.293000       0.035658
                                                         0.511800      -0.003669
                                                         0.178700       0.000467

                          5       2    2s            11420.000000       0.000000
                                                      1712.000000       0.000000
                                                       389.300000       0.000000
                                                       110.000000       0.000000
                                                        35.570000       0.000000
                                                        12.540000       0.000000
                                                         4.644000       0.000000
                                                         1.293000       0.864190
                                                         0.511800       0.000000
                                                         0.178700       0.000000

                          5       3    3s            11420.000000      -0.090544
                                                      1712.000000      -0.169770
                                                       389.300000      -0.288829
                                                       110.000000      -0.448521
                                                        35.570000      -0.595214
                                                        12.540000      -0.627274
                                                         4.644000      -0.388950
                                                         1.293000       0.131196
                                                         0.511800       0.258729
                                                         0.178700       0.075898

                          5       4    4s            11420.000000       0.000000
                                                      1712.000000       0.000000
                                                       389.300000       0.000000
                                                       110.000000       0.000000
                                                        35.570000       0.000000
                                                        12.540000       0.000000
                                                         4.644000       0.000000
                                                         1.293000       0.000000
                                                         0.511800       0.000000
                                                         0.178700       0.195886

                          6       1    1fx3              0.364000       0.151507
                          6       1    1fx2y             0.364000       0.338780
                          6       1    1fx2z             0.364000       0.338780
                          6       1    1fxy2             0.364000       0.338780
                          6       1    1fxyz             0.364000       0.586784
                          6       1    1fxz2             0.364000       0.338780
                          6       1    1fy3              0.364000       0.151507
                          6       1    1fy2z             0.364000       0.338780
                          6       1    1fyz2             0.364000       0.338780
                          6       1    1fz3              0.364000       0.151507

                          7       1    1dx2              1.654000       3.970513
                                                         0.469000       0.000000
                          7       1    1dxy              1.654000       6.877130
                                                         0.469000       0.000000
                          7       1    1dxz              1.654000       6.877130
                                                         0.469000       0.000000
                          7       1    1dy2              1.654000       3.970513
                                                         0.469000       0.000000
                          7       1    1dyz              1.654000       6.877130
                                                         0.469000       0.000000
                          7       1    1dz2              1.654000       3.970513
                                                         0.469000       0.000000

                          7       2    2dx2              1.654000       0.000000
                                                         0.469000       0.437484
                          7       2    2dxy              1.654000       0.000000
                                                         0.469000       0.757744
                          7       2    2dxz              1.654000       0.000000
                                                         0.469000       0.757744
                          7       2    2dy2              1.654000       0.000000
                                                         0.469000       0.437484
                          7       2    2dyz              1.654000       0.000000
                                                         0.469000       0.757744
                          7       2    2dz2              1.654000       0.000000
                                                         0.469000       0.437484

                          8       1    1fx3              1.093000       1.798249
                          8       1    1fx2y             1.093000       4.021007
                          8       1    1fx2z             1.093000       4.021007
                          8       1    1fxy2             1.093000       4.021007
                          8       1    1fxyz             1.093000       6.964588
                          8       1    1fxz2             1.093000       4.021007
                          8       1    1fy3              1.093000       1.798249
                          8       1    1fy2z             1.093000       4.021007
                          8       1    1fyz2             1.093000       4.021007
                          8       1    1fz3              1.093000       1.798249

     RI Auxiliary Basis Set                                    aug-cc-pVTZ-OPTRI

       Number of orbital shell sets:                                          18
       Number of orbital shells:                                              18
       Number of primitive Cartesian functions:                               18
       Number of Cartesian basis functions:                                  103
       Number of spherical basis functions:                                   78
       Norm type:                                                              2

       Normalised Cartesian orbitals:

                        Set   Shell   Orbital            Exponent    Coefficient

                          1       1    1px               0.073452       0.054506
                          1       1    1py               0.073452       0.054506
                          1       1    1pz               0.073452       0.054506

                          2       1    1s                0.086385       0.113564

                          3       1    1dx2              0.239599       0.135054
                          3       1    1dxy              0.239599       0.233921
                          3       1    1dxz              0.239599       0.233921
                          3       1    1dy2              0.239599       0.135054
                          3       1    1dyz              0.239599       0.233921
                          3       1    1dz2              0.239599       0.135054

                          4       1    1px               0.258035       0.262143
                          4       1    1py               0.258035       0.262143
                          4       1    1pz               0.258035       0.262143

                          5       1    1s                0.494138       0.420045

                          6       1    1fx3              0.729071       0.723080
                          6       1    1fx2y             0.729071       1.616857
                          6       1    1fx2z             0.729071       1.616857
                          6       1    1fxy2             0.729071       1.616857
                          6       1    1fxyz             0.729071       2.800478
                          6       1    1fxz2             0.729071       1.616857
                          6       1    1fy3              0.729071       0.723080
                          6       1    1fy2z             0.729071       1.616857
                          6       1    1fyz2             0.729071       1.616857
                          6       1    1fz3              0.729071       0.723080

                          7       1    1dx2              0.790844       1.091612
                          7       1    1dxy              0.790844       1.890728
                          7       1    1dxz              0.790844       1.890728
                          7       1    1dy2              0.790844       1.091612
                          7       1    1dyz              0.790844       1.890728
                          7       1    1dz2              0.790844       1.091612

                          8       1    1px               0.885087       1.223693
                          8       1    1py               0.885087       1.223693
                          8       1    1pz               0.885087       1.223693

                          9       1    1gx4              0.950539       0.967950
                          9       1    1gx3y             0.950539       2.560954
                          9       1    1gx3z             0.950539       2.560954
                          9       1    1gx2y2            0.950539       3.306177
                          9       1    1gx2yz            0.950539       5.726467
                          9       1    1gx2z2            0.950539       3.306177
                          9       1    1gxy3             0.950539       2.560954
                          9       1    1gxy2z            0.950539       5.726467
                          9       1    1gxyz2            0.950539       5.726467
                          9       1    1gxz3             0.950539       2.560954
                          9       1    1gy4              0.950539       0.967950
                          9       1    1gy3z             0.950539       2.560954
                          9       1    1gy2z2            0.950539       3.306177
                          9       1    1gyz3             0.950539       2.560954
                          9       1    1gz4              0.950539       0.967950

                         10       1    1px               1.454894       2.277610
                         10       1    1py               1.454894       2.277610
                         10       1    1pz               1.454894       2.277610

                         11       1    1s                2.000155       1.198693

                         12       1    1fx3              2.024177       7.194714
                         12       1    1fx2y             2.024177      16.087870
                         12       1    1fx2z             2.024177      16.087870
                         12       1    1fxy2             2.024177      16.087870
                         12       1    1fxyz             2.024177      27.865008
                         12       1    1fxz2             2.024177      16.087870
                         12       1    1fy3              2.024177       7.194714
                         12       1    1fy2z             2.024177      16.087870
                         12       1    1fyz2             2.024177      16.087870
                         12       1    1fz3              2.024177       7.194714

                         13       1    1gx4              2.528677      14.268955
                         13       1    1gx3y             2.528677      37.752106
                         13       1    1gx3z             2.528677      37.752106
                         13       1    1gx2y2            2.528677      48.737759
                         13       1    1gx2yz            2.528677      84.416275
                         13       1    1gx2z2            2.528677      48.737759
                         13       1    1gxy3             2.528677      37.752106
                         13       1    1gxy2z            2.528677      84.416275
                         13       1    1gxyz2            2.528677      84.416275
                         13       1    1gxz3             2.528677      37.752106
                         13       1    1gy4              2.528677      14.268955
                         13       1    1gy3z             2.528677      37.752106
                         13       1    1gy2z2            2.528677      48.737759
                         13       1    1gyz3             2.528677      37.752106
                         13       1    1gz4              2.528677      14.268955

                         14       1    1dx2              3.426808      14.205828
                         14       1    1dxy              3.426808      24.605216
                         14       1    1dxz              3.426808      24.605216
                         14       1    1dy2              3.426808      14.205828
                         14       1    1dyz              3.426808      24.605216
                         14       1    1dz2              3.426808      14.205828

                         15       1    1px               4.446368       9.203369
                         15       1    1py               4.446368       9.203369
                         15       1    1pz               4.446368       9.203369

                         16       1    1fx3              5.404035      65.549637
                         16       1    1fx2y             5.404035     146.573445
                         16       1    1fx2z             5.404035     146.573445
                         16       1    1fxy2             5.404035     146.573445
                         16       1    1fxyz             5.404035     253.872654
                         16       1    1fxz2             5.404035     146.573445
                         16       1    1fy3              5.404035      65.549637
                         16       1    1fy2z             5.404035     146.573445
                         16       1    1fyz2             5.404035     146.573445
                         16       1    1fz3              5.404035      65.549637

                         17       1    1s                5.847742       2.680102

                         18       1    1dx2              7.983611      62.410599
                         18       1    1dxy              7.983611     108.098328
                         18       1    1dxz              7.983611     108.098328
                         18       1    1dy2              7.983611      62.410599
                         18       1    1dyz              7.983611     108.098328
                         18       1    1dz2              7.983611      62.410599

       Atomic covalent radius [Angstrom]:                                  0.750

       Atomic van der Waals radius [Angstrom]:                             1.550

     The atoms of this atomic kind are PAW atoms (GAPW):
       Hard Gaussian function radius:                                      1.512
       Rho0 radius:                                                        1.512
       Maximum GTO radius used for PAW projector construction:            24.566

     GAPW Soft Basis Set                                        aug-cc-pVTZ_soft

       Number of orbital shell sets:                                           8
       Number of orbital shells:                                              14
       Number of primitive Cartesian functions:                               13
       Number of Cartesian basis functions:                                   55
       Number of spherical basis functions:                                   46
       Norm type:                                                              2

       Normalised Cartesian orbitals:

                        Set   Shell   Orbital            Exponent    Coefficient

                          1       1    1px               0.049100       0.032945
                          1       1    1py               0.049100       0.032945
                          1       1    1pz               0.049100       0.032945

                          2       1    1s                0.057600       0.083797

                          3       1    1dx2              0.151000       0.060203
                          3       1    1dxy              0.151000       0.104275
                          3       1    1dxz              0.151000       0.104275
                          3       1    1dy2              0.151000       0.060203
                          3       1    1dyz              0.151000       0.104275
                          3       1    1dz2              0.151000       0.060203

                          4       1    1px               1.742000       0.000000
                                                         0.555000       0.682820
                                                         0.172500       0.000000
                          4       1    1py               1.742000       0.000000
                                                         0.555000       0.682820
                                                         0.172500       0.000000
                          4       1    1pz               1.742000       0.000000
                                                         0.555000       0.682820
                                                         0.172500       0.000000

                          4       2    2px               1.742000       0.852042
                                                         0.555000       0.340377
                                                         0.172500       0.053406
                          4       2    2py               1.742000       0.852042
                                                         0.555000       0.340377
                                                         0.172500       0.053406
                          4       2    2pz               1.742000       0.852042
                                                         0.555000       0.340377
                                                         0.172500       0.053406

                          4       3    3px               1.742000       0.000000
                                                         0.555000       0.000000
                                                         0.172500       0.158462
                          4       3    3py               1.742000       0.000000
                                                         0.555000       0.000000
                                                         0.172500       0.158462
                          4       3    3pz               1.742000       0.000000
                                                         0.555000       0.000000
                                                         0.172500       0.158462

                          5       1    1s                1.293000       0.035658
                                                         0.511800      -0.003669
                                                         0.178700       0.000467

                          5       2    2s                1.293000       0.864190
                                                         0.511800       0.000000
                                                         0.178700       0.000000

                          5       3    3s                1.293000       0.131196
                                                         0.511800       0.258729
                                                         0.178700       0.075898

                          5       4    4s                1.293000       0.000000
                                                         0.511800       0.000000
                                                         0.178700       0.195886

                          6       1    1fx3              0.364000       0.151507
                          6       1    1fx2y             0.364000       0.338780
                          6       1    1fx2z             0.364000       0.338780
                          6       1    1fxy2             0.364000       0.338780
                          6       1    1fxyz             0.364000       0.586784
                          6       1    1fxz2             0.364000       0.338780
                          6       1    1fy3              0.364000       0.151507
                          6       1    1fy2z             0.364000       0.338780
                          6       1    1fyz2             0.364000       0.338780
                          6       1    1fz3              0.364000       0.151507

                          7       1    1dx2              1.654000       3.970513
                                                         0.469000       0.000000
                          7       1    1dxy              1.654000       6.877130
                                                         0.469000       0.000000
                          7       1    1dxz              1.654000       6.877130
                                                         0.469000       0.000000
                          7       1    1dy2              1.654000       3.970513
                                                         0.469000       0.000000
                          7       1    1dyz              1.654000       6.877130
                                                         0.469000       0.000000
                          7       1    1dz2              1.654000       3.970513
                                                         0.469000       0.000000

                          7       2    2dx2              1.654000       0.000000
                                                         0.469000       0.437484
                          7       2    2dxy              1.654000       0.000000
                                                         0.469000       0.757744
                          7       2    2dxz              1.654000       0.000000
                                                         0.469000       0.757744
                          7       2    2dy2              1.654000       0.000000
                                                         0.469000       0.437484
                          7       2    2dyz              1.654000       0.000000
                                                         0.469000       0.757744
                          7       2    2dz2              1.654000       0.000000
                                                         0.469000       0.437484

                          8       1    1fx3              1.093000       1.798249
                          8       1    1fx2y             1.093000       4.021007
                          8       1    1fx2z             1.093000       4.021007
                          8       1    1fxy2             1.093000       4.021007
                          8       1    1fxyz             1.093000       6.964588
                          8       1    1fxz2             1.093000       4.021007
                          8       1    1fy3              1.093000       1.798249
                          8       1    1fy2z             1.093000       4.021007
                          8       1    1fyz2             1.093000       4.021007
                          8       1    1fz3              1.093000       1.798249

     AE Potential information for                                            ALL

       Description:                                       All-electron potential
                                          Krack, Parrinello, PCCP 2, 2105 (2000)

       Gaussian exponent of the core charge distribution:               5.979100
       Electronic configuration (s p d ...):                           4   3   0


 MOLECULE KIND INFORMATION


 All atoms are their own molecule, skipping detailed information


 TOTAL NUMBERS AND MAXIMUM NUMBERS

  Total number of            - Atomic kinds:                                   2
                             - Atoms:                                          2
                             - Shell sets:                                    16
                             - Shells:                                        28
                             - Primitive Cartesian functions:                 44
                             - Cartesian basis functions:                    110
                             - Spherical basis functions:                     92

  Maximum angular momentum of the orbital basis functions:                     3


 MODULE QUICKSTEP: ATOMIC COORDINATES IN ANGSTROM

   Atom Kind Element         X             Y             Z       Z(eff)     Mass
      1    1 B     5     14.334900     15.000000     15.000000   5.0000  10.8110
      2    2 N     7     15.665100     15.000000     15.000000   7.0000  14.0067



 SCF PARAMETERS         Density guess:                                    ATOMIC
                        --------------------------------------------------------
                        max_scf:                                             500
                        max_scf_history:                                       0
                        max_diis:                                              4
                        --------------------------------------------------------
                        eps_scf:                                        1.00E-06
                        eps_scf_history:                                0.00E+00
                        eps_diis:                                       1.00E-01
                        eps_eigval:                                     1.00E-05
                        --------------------------------------------------------
                        level_shift [a.u.]:                             0.000000
                        added MOs                                        86    0
                        --------------------------------------------------------
                        Mixing method:                            BROYDEN_MIXING
                                                charge density mixing in g-space
                        --------------------------------------------------------
                        No outer SCF

 PW_GRID| Information for grid number                                          1
 PW_GRID| Grid distributed over                                    48 processors
 PW_GRID| Real space group dimensions                                    48    1
 PW_GRID| the grid is blocked:                                                NO
 PW_GRID| Cutoff [a.u.]                                                    250.0
 PW_GRID| spherical cutoff:                                                   NO
 PW_GRID|   Bounds   1           -202     202                Points:         405
 PW_GRID|   Bounds   2           -202     202                Points:         405
 PW_GRID|   Bounds   3           -202     202                Points:         405
[...]
 *    |             please set the keyword IGNORE_CONVERGENCE_FAILURE.         *
 *  O/|                                                                        *
 * /| |                                                                        *
 * / \                                                            qs_scf.F:611 *
 *******************************************************************************


 ===== Routine Calling Stack ===== 

            3 scf_env_do_scf
            2 qs_energies
            1 CP2K

 *******************************************************************************
 *   ___                                                                       *
 *  /   \                                                                      *
 * [ABORT]                                                                     *
 *  \___/     SCF run NOT converged. To continue the calculation regardless,   *
 *    |             please set the keyword IGNORE_CONVERGENCE_FAILURE.         *
 *  O/|                                                                        *
 * /| |                                                                        *
 * / \                                                            qs_scf.F:611 *
 *******************************************************************************


 ===== Routine Calling Stack ===== 

            3 scf_env_do_scf
            2 qs_energies
            1 CP2K

 *******************************************************************************
 *   ___                                                                       *
 *  /   \                                                                      *
 * [ABORT]                                                                     *
 *  \___/     SCF run NOT converged. To continue the calculation regardless,   *
 *    |             please set the keyword IGNORE_CONVERGENCE_FAILURE.         *
 *  O/|                                                                        *
 * /| |                                                                        *
 * / \                                                            qs_scf.F:611 *
 *******************************************************************************


 ===== Routine Calling Stack ===== 

            3 scf_env_do_scf
            2 qs_energies
            1 CP2K

 *******************************************************************************
 *   ___                                                                       *
 *  /   \                                                                      *
 * [ABORT]                                                                     *
 *  \___/     SCF run NOT converged. To continue the calculation regardless,   *
 *    |             please set the keyword IGNORE_CONVERGENCE_FAILURE.         *
 *  O/|                                                                        *
 * /| |                                                                        *
 * / \                                                            qs_scf.F:611 *
 *******************************************************************************


 ===== Routine Calling Stack ===== 

            3 scf_env_do_scf
            2 qs_energies
            1 CP2K

 *******************************************************************************
 *   ___                                                                       *
 *  /   \                                                                      *
 * [ABORT]                                                                     *
 *  \___/     SCF run NOT converged. To continue the calculation regardless,   *
 *    |             please set the keyword IGNORE_CONVERGENCE_FAILURE.         *
 *  O/|                                                                        *
 * /| |                                                                        *
 * / \                                                            qs_scf.F:611 *
 *******************************************************************************


 ===== Routine Calling Stack ===== 

            3 scf_env_do_scf
            2 qs_energies
            1 CP2K

 *******************************************************************************
 *   ___                                                                       *
 *  /   \                                                                      *
 * [ABORT]                                                                     *
 *  \___/     SCF run NOT converged. To continue the calculation regardless,   *
 *    |             please set the keyword IGNORE_CONVERGENCE_FAILURE.         *
 *  O/|                                                                        *
 * /| |                                                                        *
 * / \                                                            qs_scf.F:611 *
 *******************************************************************************


 ===== Routine Calling Stack ===== 

            3 scf_env_do_scf
            2 qs_energies
            1 CP2K

 *******************************************************************************
 *   ___                                                                       *
 *  /   \                                                                      *
 * [ABORT]                                                                     *
 *  \___/     SCF run NOT converged. To continue the calculation regardless,   *
 *    |             please set the keyword IGNORE_CONVERGENCE_FAILURE.         *
 *  O/|                                                                        *
 * /| |                                                                        *
 * / \                                                            qs_scf.F:611 *
 *******************************************************************************


 ===== Routine Calling Stack ===== 

            3 scf_env_do_scf
            2 qs_energies
            1 CP2K

 *******************************************************************************
 *   ___                                                                       *
 *  /   \                                                                      *
 * [ABORT]                                                                     *
 *  \___/     SCF run NOT converged. To continue the calculation regardless,   *
 *    |             please set the keyword IGNORE_CONVERGENCE_FAILURE.         *
 *  O/|                                                                        *
 * /| |                                                                        *
 * / \                                                            qs_scf.F:611 *
 *******************************************************************************


 ===== Routine Calling Stack ===== 

            3 scf_env_do_scf
            2 qs_energies
            1 CP2K

 *******************************************************************************
 *   ___                                                                       *
 *  /   \                                                                      *
 * [ABORT]                                                                     *
 *  \___/     SCF run NOT converged. To continue the calculation regardless,   *
 *    |             please set the keyword IGNORE_CONVERGENCE_FAILURE.         *
 *  O/|                                                                        *
 * /| |                                                                        *
 * / \                                                            qs_scf.F:611 *
 *******************************************************************************


 ===== Routine Calling Stack ===== 

            3 scf_env_do_scf
            2 qs_energies
            1 CP2K

 *******************************************************************************
 *   ___                                                                       *
 *  /   \                                                                      *
 * [ABORT]                                                                     *
 *  \___/     SCF run NOT converged. To continue the calculation regardless,   *
 *    |             please set the keyword IGNORE_CONVERGENCE_FAILURE.         *
 *  O/|                                                                        *
 * /| |                                                                        *
 * / \                                                            qs_scf.F:611 *
 *******************************************************************************


 ===== Routine Calling Stack ===== 

            3 scf_env_do_scf
            2 qs_energies
            1 CP2K

 *******************************************************************************
 *   ___                                                                       *
 *  /   \                                                                      *
 * [ABORT]                                                                     *
 *  \___/     SCF run NOT converged. To continue the calculation regardless,   *
 *    |             please set the keyword IGNORE_CONVERGENCE_FAILURE.         *
 *  O/|                                                                        *
 * /| |                                                                        *
 * / \                                                            qs_scf.F:611 *
 *******************************************************************************


 ===== Routine Calling Stack ===== 

            3 scf_env_do_scf
            2 qs_energies
            1 CP2K

 *******************************************************************************
 *   ___                                                                       *
 *  /   \                                                                      *
 * [ABORT]                                                                     *
 *  \___/     SCF run NOT converged. To continue the calculation regardless,   *
 *    |             please set the keyword IGNORE_CONVERGENCE_FAILURE.         *
 *  O/|                                                                        *
 * /| |                                                                        *
 * / \                                                            qs_scf.F:611 *
 *******************************************************************************


 ===== Routine Calling Stack ===== 

            3 scf_env_do_scf
            2 qs_energies
            1 CP2K

 *******************************************************************************
 *   ___                                                                       *
 *  /   \                                                                      *
 * [ABORT]                                                                     *
 *  \___/     SCF run NOT converged. To continue the calculation regardless,   *
 *    |             please set the keyword IGNORE_CONVERGENCE_FAILURE.         *
 *  O/|                                                                        *
 * /| |                                                                        *
 * / \                                                            qs_scf.F:611 *
 *******************************************************************************


 ===== Routine Calling Stack ===== 

            3 scf_env_do_scf
            2 qs_energies
            1 CP2K

 *******************************************************************************
 *   ___                                                                       *
 *  /   \                                                                      *
 * [ABORT]                                                                     *
 *  \___/     SCF run NOT converged. To continue the calculation regardless,   *
 *    |             please set the keyword IGNORE_CONVERGENCE_FAILURE.         *
 *  O/|                                                                        *
 * /| |                                                                        *
 * / \                                                            qs_scf.F:611 *
 *******************************************************************************


 ===== Routine Calling Stack ===== 

            3 scf_env_do_scf
            2 qs_energies
            1 CP2K

 *******************************************************************************
 *   ___                                                                       *
 *  /   \                                                                      *
 * [ABORT]                                                                     *
 *  \___/     SCF run NOT converged. To continue the calculation regardless,   *
 *    |             please set the keyword IGNORE_CONVERGENCE_FAILURE.         *
 *  O/|                                                                        *
 * /| |                                                                        *
 * / \                                                            qs_scf.F:611 *
 *******************************************************************************


 ===== Routine Calling Stack ===== 

            3 scf_env_do_scf
            2 qs_energies
            1 CP2K

 *******************************************************************************
 *   ___                                                                       *
 *  /   \                                                                      *
 * [ABORT]                                                                     *
 *  \___/     SCF run NOT converged. To continue the calculation regardless,   *
 *    |             please set the keyword IGNORE_CONVERGENCE_FAILURE.         *
 *  O/|                                                                        *
 * /| |                                                                        *
 * / \                                                            qs_scf.F:611 *
 *******************************************************************************


 ===== Routine Calling Stack ===== 

            3 scf_env_do_scf
            2 qs_energies
            1 CP2K

 *******************************************************************************
 *   ___                                                                       *
 *  /   \                                                                      *
 * [ABORT]                                                                     *
 *  \___/     SCF run NOT converged. To continue the calculation regardless,   *
 *    |             please set the keyword IGNORE_CONVERGENCE_FAILURE.         *
 *  O/|                                                                        *
 * /| |                                                                        *
 * / \                                                            qs_scf.F:611 *
 *******************************************************************************


 ===== Routine Calling Stack ===== 

            3 scf_env_do_scf
            2 qs_energies
            1 CP2K

 *******************************************************************************
 *   ___                                                                       *
 *  /   \                                                                      *
 * [ABORT]                                                                     *
 *  \___/     SCF run NOT converged. To continue the calculation regardless,   *
 *    |             please set the keyword IGNORE_CONVERGENCE_FAILURE.         *
 *  O/|                                                                        *
 * /| |                                                                        *
 * / \                                                            qs_scf.F:611 *
 *******************************************************************************


 ===== Routine Calling Stack ===== 

            3 scf_env_do_scf
            2 qs_energies
            1 CP2K

 *******************************************************************************
 *   ___                                                                       *
 *  /   \                                                                      *
 * [ABORT]                                                                     *
 *  \___/     SCF run NOT converged. To continue the calculation regardless,   *
 *    |             please set the keyword IGNORE_CONVERGENCE_FAILURE.         *
 *  O/|                                                                        *
 * /| |                                                                        *
 * / \                                                            qs_scf.F:611 *
 *******************************************************************************


 ===== Routine Calling Stack ===== 

            3 scf_env_do_scf
            2 qs_energies
            1 CP2K

 *******************************************************************************
 *   ___                                                                       *
 *  /   \                                                                      *
 * [ABORT]                                                                     *
 *  \___/     SCF run NOT converged. To continue the calculation regardless,   *
 *    |             please set the keyword IGNORE_CONVERGENCE_FAILURE.         *
 *  O/|                                                                        *
 * /| |                                                                        *
 * / \                                                            qs_scf.F:611 *
 *******************************************************************************


 ===== Routine Calling Stack ===== 

            3 scf_env_do_scf
            2 qs_energies
            1 CP2K

 *******************************************************************************
 *   ___                                                                       *
 *  /   \                                                                      *
 * [ABORT]                                                                     *
 *  \___/     SCF run NOT converged. To continue the calculation regardless,   *
 *    |             please set the keyword IGNORE_CONVERGENCE_FAILURE.         *
 *  O/|                                                                        *
 * /| |                                                                        *
 * / \                                                            qs_scf.F:611 *
 *******************************************************************************


 ===== Routine Calling Stack ===== 

            3 scf_env_do_scf
            2 qs_energies
            1 CP2K

 *******************************************************************************
 *   ___                                                                       *
 *  /   \                                                                      *
 * [ABORT]                                                                     *
 *  \___/     SCF run NOT converged. To continue the calculation regardless,   *
 *    |             please set the keyword IGNORE_CONVERGENCE_FAILURE.         *
 *  O/|                                                                        *
 * /| |                                                                        *
 * / \                                                            qs_scf.F:611 *
 *******************************************************************************


 ===== Routine Calling Stack ===== 

            3 scf_env_do_scf
            2 qs_energies
            1 CP2K
