 DBCSR| CPU Multiplication driver                                           BLAS (U)
 DBCSR| Multrec recursion limit                                              512 (U)
 DBCSR| Multiplication stack size                                           1000 (D)
 DBCSR| Maximum elements for images                                    UNLIMITED (U)
 DBCSR| Multiplicative factor virtual images                                   1 (U)
 DBCSR| Use multiplication densification                                       T (D)
 DBCSR| Multiplication size stacks                                             3 (U)
 DBCSR| Use memory pool for CPU allocation                                     F (U)
 DBCSR| Number of 3D layers                                               SINGLE (U)
 DBCSR| Use MPI memory allocation                                              F (U)
 DBCSR| Use RMA algorithm                                                      F (U)
 DBCSR| Use Communication thread                                               T (U)
 DBCSR| Communication thread load                                             75 (D)
 DBCSR| MPI: My process id                                                     0
 DBCSR| MPI: Number of processes                                              24
 DBCSR| OMP: Current number of threads                                         4
 DBCSR| OMP: Max number of threads                                             4
 DBCSR| Split modifier for TAS multiplication algorithm                  1.0E+00 (U)


  **** **** ******  **  PROGRAM STARTED AT               2025-03-13 07:11:57.918
 ***** ** ***  *** **   PROGRAM STARTED ON                          i01r05c04s09
 **    ****   ******    PROGRAM STARTED BY                               di38fab
 ***** **    ** ** **   PROGRAM PROCESS ID                                 27360
  **** **  *******  **  PROGRAM STARTED IN /hppfs/scratch/04/di38fab/05_MOL/W4-1
                                           1+ALK/c2/SZV/GW+BSE/Np1

 CP2K| version string:                 CP2K version 2025.1 (Development Version)
 CP2K| source code revision number:                                  git:d2e611a
 CP2K| cp2kflags: omp libint fftw3 libxc parallel scalapack max_contr=4         
 CP2K| is freely available from                            https://www.cp2k.org/
 CP2K| Program compiled at                       Thu 06 Mar 2025 05:09:20 PM CET
 CP2K| Program compiled on                                               login02
 CP2K| Program compiled for                                        Supermuc-foss
 CP2K| Data directory path                  /hppfs/work/pn36zo/di38fab/cp2k/data
 CP2K| Input file name                                                    GW.inp

 GLOBAL| Force Environment number                                              1
 GLOBAL| Basis set file name            /hppfs/scratch/04/di38fab/04_TMD/BASIS_A
 GLOBAL| Potential file name            /hppfs/work/pn36zo/di38fab/cp2k/data/ALL
 GLOBAL| MM Potential file name                                     MM_POTENTIAL
 GLOBAL| Coordinate file name                                      __STD_INPUT__
 GLOBAL| Method name                                                        CP2K
 GLOBAL| Project name                                                       MoS2
 GLOBAL| Run type                                                         ENERGY
 GLOBAL| FFT library                                                       FFTW3
 GLOBAL| Diagonalization library                                       ScaLAPACK
 GLOBAL| DGEMM library                                                      BLAS
 GLOBAL| Orthonormality check for eigenvectors                          DISABLED
 GLOBAL| Matrix multiplication library                                 ScaLAPACK
 GLOBAL| All-to-all communication in single precision                          F
 GLOBAL| FFTs using library dependent lengths                                  F
 GLOBAL| Grid backend                                                       AUTO
 GLOBAL| Global print level                                               MEDIUM
 GLOBAL| MPI I/O enabled                                                       T
 GLOBAL| Total number of message passing processes                            24
 GLOBAL| Number of threads for this process                                    4
 GLOBAL| This output is from process                                           0
 GLOBAL| OpenMP stack size per thread (OMP_STACKSIZE)                    default
 GLOBAL| CPU model name             Intel(R) Xeon(R) Platinum 8174 CPU @ 3.10GHz

 MEMORY| system memory details [Kb]
 MEMORY|                        rank 0           min           max       average
 MEMORY| MemTotal             98436664      98436664      98436664      98436664
 MEMORY| MemFree              83820960      83820960      84062984      83941972
 MEMORY| Buffers                     0             0             0             0
 MEMORY| Cached                2406192       2406192       2602852       2504522
 MEMORY| Slab                  1271376       1166024       1271376       1218700
 MEMORY| SReclaimable           282456        260596        282456        271526
 MEMORY| MemLikelyFree        86509608      86509608      86926432      86718020


 *** Fundamental physical constants (SI units) ***

 *** Literature: B. J. Mohr and B. N. Taylor,
 ***             CODATA recommended values of the fundamental physical
 ***             constants: 2006, Web Version 5.1
 ***             http://physics.nist.gov/constants

 Speed of light in vacuum [m/s]                             2.99792458000000E+08
 Magnetic constant or permeability of vacuum [N/A**2]       1.25663706143592E-06
 Electric constant or permittivity of vacuum [F/m]          8.85418781762039E-12
 Planck constant (h) [J*s]                                  6.62606896000000E-34
 Planck constant (h-bar) [J*s]                              1.05457162825177E-34
 Elementary charge [C]                                      1.60217648700000E-19
 Electron mass [kg]                                         9.10938215000000E-31
 Electron g factor [ ]                                     -2.00231930436220E+00
 Proton mass [kg]                                           1.67262163700000E-27
 Fine-structure constant                                    7.29735253760000E-03
 Rydberg constant [1/m]                                     1.09737315685270E+07
 Avogadro constant [1/mol]                                  6.02214179000000E+23
 Boltzmann constant [J/K]                                   1.38065040000000E-23
 Atomic mass unit [kg]                                      1.66053878200000E-27
 Bohr radius [m]                                            5.29177208590000E-11

 *** Conversion factors ***

 [u] -> [a.u.]                                              1.82288848426455E+03
 [Angstrom] -> [Bohr] = [a.u.]                              1.88972613288564E+00
 [a.u.] = [Bohr] -> [Angstrom]                              5.29177208590000E-01
 [a.u.] -> [s]                                              2.41888432650478E-17
 [a.u.] -> [fs]                                             2.41888432650478E-02
 [a.u.] -> [J]                                              4.35974393937059E-18
 [a.u.] -> [N]                                              8.23872205491840E-08
 [a.u.] -> [K]                                              3.15774647902944E+05
 [a.u.] -> [kJ/mol]                                         2.62549961709828E+03
 [a.u.] -> [kcal/mol]                                       6.27509468713739E+02
 [a.u.] -> [Pa]                                             2.94210107994716E+13
 [a.u.] -> [bar]                                            2.94210107994716E+08
 [a.u.] -> [atm]                                            2.90362800883016E+08
 [a.u.] -> [eV]                                             2.72113838565563E+01
 [a.u.] -> [Hz]                                             6.57968392072181E+15
 [a.u.] -> [1/cm] (wave numbers)                            2.19474631370540E+05
 [a.u./Bohr**2] -> [1/cm]                                   5.14048714338585E+03
 

 CELL_TOP| Volume [angstrom^3]:                                     27000.000000
 CELL_TOP| Vector a [angstrom    30.000     0.000     0.000   |a| =    30.000000
 CELL_TOP| Vector b [angstrom     0.000    30.000     0.000   |b| =    30.000000
 CELL_TOP| Vector c [angstrom     0.000     0.000    30.000   |c| =    30.000000
 CELL_TOP| Angle (b,c), alpha [degree]:                                90.000000
 CELL_TOP| Angle (a,c), beta  [degree]:                                90.000000
 CELL_TOP| Angle (a,b), gamma [degree]:                                90.000000
 CELL_TOP| Numerically orthorhombic:                                         YES
 CELL_TOP| Periodicity                                                      NONE

 GENERATE|  Preliminary Number of Bonds generated:                             0
 GENERATE|  Achieved consistency in connectivity generation.

 CELL| Volume [angstrom^3]:                                         27000.000000
 CELL| Vector a [angstrom]:      30.000     0.000     0.000   |a| =    30.000000
 CELL| Vector b [angstrom]:       0.000    30.000     0.000   |b| =    30.000000
 CELL| Vector c [angstrom]:       0.000     0.000    30.000   |c| =    30.000000
 CELL| Angle (b,c), alpha [degree]:                                    90.000000
 CELL| Angle (a,c), beta  [degree]:                                    90.000000
 CELL| Angle (a,b), gamma [degree]:                                    90.000000
 CELL| Numerically orthorhombic:                                             YES
 CELL| Periodicity                                                          NONE

 CELL_REF| Volume [angstrom^3]:                                     27000.000000
 CELL_REF| Vector a [angstrom    30.000     0.000     0.000   |a| =    30.000000
 CELL_REF| Vector b [angstrom     0.000    30.000     0.000   |b| =    30.000000
 CELL_REF| Vector c [angstrom     0.000     0.000    30.000   |c| =    30.000000
 CELL_REF| Angle (b,c), alpha [degree]:                                90.000000
 CELL_REF| Angle (a,c), beta  [degree]:                                90.000000
 CELL_REF| Angle (a,b), gamma [degree]:                                90.000000
 CELL_REF| Numerically orthorhombic:                                         YES
 CELL_REF| Periodicity                                                      NONE

 *******************************************************************************
 *******************************************************************************
 **                                                                           **
 **     #####                         ##              ##                      **
 **    ##   ##            ##          ##              ##                      **
 **   ##     ##                       ##            ######                    **
 **   ##     ##  ##   ##  ##   #####  ##  ##   ####   ##    #####    #####    **
 **   ##     ##  ##   ##  ##  ##      ## ##   ##      ##   ##   ##  ##   ##   **
 **   ##  ## ##  ##   ##  ##  ##      ####     ###    ##   ######   ######    **
 **    ##  ###   ##   ##  ##  ##      ## ##      ##   ##   ##       ##        **
 **     #######   #####   ##   #####  ##  ##  ####    ##    #####   ##        **
 **           ##                                                    ##        **
 **                                                                           **
 **                                                ... make the atoms dance   **
 **                                                                           **
 **            Copyright (C) by CP2K developers group (2000-2025)             **
 **                      J. Chem. Phys. 152, 194103 (2020)                    **
 **                                                                           **
 *******************************************************************************

 DFT| Spin restricted Kohn-Sham (RKS) calculation                            RKS
 DFT| Multiplicity                                                             1
 DFT| Number of spin states                                                    1
 DFT| Charge                                                                   0
 DFT| Self-interaction correction (SIC)                                       NO
 DFT| Cutoffs: density                                              1.000000E-10
 DFT|          gradient                                             1.000000E-10
 DFT|          tau                                                  1.000000E-10
 DFT|          cutoff_smoothing_range                               0.000000E+00
 DFT| XC density smoothing                                                  NONE
 DFT| XC derivatives                                                          PW

 FUNCTIONAL| PBE:
 FUNCTIONAL| J.P.Perdew, K.Burke, M.Ernzerhof, Phys. Rev. Letter, vol. 77, n 18,
 FUNCTIONAL|  pp. 3865-3868, (1996)sx=0.750sc=1.000{spin unpolarized}           


 QS| Method:                                                                GAPW
 QS| Density plane wave grid type                        NON-SPHERICAL FULLSPACE
 QS| Number of grid levels:                                                    4
 QS| Density cutoff [a.u.]:                                                250.0
 QS| Multi grid cutoff [a.u.]: 1) grid level                               250.0
 QS|                           2) grid level                                83.3
 QS|                           3) grid level                                27.8
 QS|                           4) grid level                                 9.3
 QS| Grid level progression factor:                                          3.0
 QS| Relative density cutoff [a.u.]:                                        50.0
 QS| Interaction thresholds: eps_pgf_orb:                                1.0E-12
 QS|                         eps_filter_matrix:                          0.0E+00
 QS|                         eps_core_charge:                            1.0E-14
 QS|                         eps_rho_gspace:                             1.0E-12
 QS|                         eps_rho_rspace:                             1.0E-12
 QS|                         eps_gvg_rspace:                             1.0E-06
 QS|                         eps_ppl:                                    1.0E-02
 QS|                         eps_ppnl:                                   1.0E-08
 QS| GAPW|      One center basis from orbital basis primitives
 QS| GAPW|                   eps_fit:                                    1.0E-04
 QS| GAPW|                   eps_iso:                                    1.0E-12
 QS| GAPW|                   eps_svd:                                    1.0E-08
 QS| GAPW|                   eps_cpc:                                    1.0E-12
 QS| GAPW|   atom-r-grid: quadrature:                                     GC_LOG
 QS| GAPW|      atom-s-grid:  max l :                                          4
 QS| GAPW|      max_l_rho0 :                                                   2


 ATOMIC KIND INFORMATION

  1. Atomic kind: C                                     Number of atoms:       2

     Orbital Basis Set                                         aug-SZV-MOLOPT-ae

       Number of orbital shell sets:                                           2
       Number of orbital shells:                                               6
       Number of primitive Cartesian functions:                               13
       Number of Cartesian basis functions:                                   15
       Number of spherical basis functions:                                   14
       Norm type:                                                              2

       Normalised Cartesian orbitals:

                        Set   Shell   Orbital            Exponent    Coefficient

                          1       1    2s                0.070000       0.000000
                                                         0.143687       0.040037
                                                         0.313471       0.177689
                                                         0.721783       0.139661
                                                         1.876046      -0.038599
                                                         6.036200      -0.128975
                                                        30.497239      -0.122578

                          1       2    3s                0.070000      -0.142268
                                                         0.143687       0.288819
                                                         0.313471       0.010360
                                                         0.721783       0.175994
                                                         1.876046       0.000000
                                                         6.036200       0.000000
                                                        30.497239       0.000000

                          1       3    3px               0.070000       0.000000
                                                         0.143687       0.012825
                                                         0.313471       0.142381
                                                         0.721783       0.396426
                                                         1.876046       0.544234
                                                         6.036200       0.508157
                                                        30.497239       0.384077
                          1       3    3py               0.070000       0.000000
                                                         0.143687       0.012825
                                                         0.313471       0.142381
                                                         0.721783       0.396426
                                                         1.876046       0.544234
                                                         6.036200       0.508157
                                                        30.497239       0.384077
                          1       3    3pz               0.070000       0.000000
                                                         0.143687       0.012825
                                                         0.313471       0.142381
                                                         0.721783       0.396426
                                                         1.876046       0.544234
                                                         6.036200       0.508157
                                                        30.497239       0.384077

                          1       4    4px               0.070000       0.076505
                                                         0.143687      -0.086104
                                                         0.313471       0.010230
                                                         0.721783       0.129894
                                                         1.876046       0.000000
                                                         6.036200       0.000000
                                                        30.497239       0.000000
                          1       4    4py               0.070000       0.076505
                                                         0.143687      -0.086104
                                                         0.313471       0.010230
                                                         0.721783       0.129894
                                                         1.876046       0.000000
                                                         6.036200       0.000000
                                                        30.497239       0.000000
                          1       4    4pz               0.070000       0.076505
                                                         0.143687      -0.086104
                                                         0.313471       0.010230
                                                         0.721783       0.129894
                                                         1.876046       0.000000
                                                         6.036200       0.000000
                                                        30.497239       0.000000

                          1       5    4dx2              0.070000       0.004316
                                                         0.143687       0.012639
                                                         0.313471       0.125057
                                                         0.721783       0.080411
                                                         1.876046       0.000000
                                                         6.036200       0.000000
                                                        30.497239       0.000000
                          1       5    4dxy              0.070000       0.007476
                                                         0.143687       0.021892
                                                         0.313471       0.216606
                                                         0.721783       0.139276
                                                         1.876046       0.000000
                                                         6.036200       0.000000
                                                        30.497239       0.000000
                          1       5    4dxz              0.070000       0.007476
                                                         0.143687       0.021892
                                                         0.313471       0.216606
                                                         0.721783       0.139276
                                                         1.876046       0.000000
                                                         6.036200       0.000000
                                                        30.497239       0.000000
                          1       5    4dy2              0.070000       0.004316
                                                         0.143687       0.012639
                                                         0.313471       0.125057
                                                         0.721783       0.080411
                                                         1.876046       0.000000
                                                         6.036200       0.000000
                                                        30.497239       0.000000
                          1       5    4dyz              0.070000       0.007476
                                                         0.143687       0.021892
                                                         0.313471       0.216606
                                                         0.721783       0.139276
                                                         1.876046       0.000000
                                                         6.036200       0.000000
                                                        30.497239       0.000000
                          1       5    4dz2              0.070000       0.004316
                                                         0.143687       0.012639
                                                         0.313471       0.125057
                                                         0.721783       0.080411
                                                         1.876046       0.000000
                                                         6.036200       0.000000
                                                        30.497239       0.000000

                          2       1    1s              742.737049       0.929185
                                                       136.180025       1.402437
                                                        38.098264       1.841991
                                                        13.087782       1.817278
                                                         5.082369       1.004768
                                                         2.093200       0.161650

     RI Auxiliary Basis Set             RI_aug-SZV-MOLOPT-ae_N_RI_047_s_p_d_f_g_

       Number of orbital shell sets:                                          13
       Number of orbital shells:                                              13
       Number of primitive Cartesian functions:                               13
       Number of Cartesian basis functions:                                   61
       Number of spherical basis functions:                                   47
       Norm type:                                                              2

       Normalised Cartesian orbitals:

                        Set   Shell   Orbital            Exponent    Coefficient

                          1       1    6px               0.188026       0.176487
                          1       1    6py               0.188026       0.176487
                          1       1    6pz               0.188026       0.176487

                          2       1    1s                0.215996       0.225811

                          3       1    9dx2              0.493159       0.477680
                          3       1    9dxy              0.493159       0.827367
                          3       1    9dxz              0.493159       0.827367
                          3       1    9dy2              0.493159       0.477680
                          3       1    9dyz              0.493159       0.827367
                          3       1    9dz2              0.493159       0.477680

                          4       1    2s                0.558846       0.460659

                          5       1   11fx3              0.606864       0.478531
                          5       1   11fx2y             0.606864       1.070027
                          5       1   11fx2z             0.606864       1.070027
                          5       1   11fxy2             0.606864       1.070027
                          5       1   11fxyz             0.606864       1.853341
                          5       1   11fxz2             0.606864       1.070027
                          5       1   11fy3              0.606864       0.478531
                          5       1   11fy2z             0.606864       1.070027
                          5       1   11fyz2             0.606864       1.070027
                          5       1   11fz3              0.606864       0.478531

                          6       1    7px               0.885046       1.223623
                          6       1    7py               0.885046       1.223623
                          6       1    7pz               0.885046       1.223623

                          7       1   13gx4              1.089129       1.407353
                          7       1   13gx3y             1.089129       3.723506
                          7       1   13gx3z             1.089129       3.723506
                          7       1   13gx2y2            1.089129       4.807025
                          7       1   13gx2yz            1.089129       8.326012
                          7       1   13gx2z2            1.089129       4.807025
                          7       1   13gxy3             1.089129       3.723506
                          7       1   13gxy2z            1.089129       8.326012
                          7       1   13gxyz2            1.089129       8.326012
                          7       1   13gxz3             1.089129       3.723506
                          7       1   13gy4              1.089129       1.407353
                          7       1   13gy3z             1.089129       3.723506
                          7       1   13gy2z2            1.089129       4.807025
                          7       1   13gyz3             1.089129       3.723506
                          7       1   13gz4              1.089129       1.407353

                          8       1   12fx3              2.640281      13.081796
                          8       1   12fx2y             2.640281      29.251784
                          8       1   12fx2z             2.640281      29.251784
                          8       1   12fxy2             2.640281      29.251784
                          8       1   12fxyz             2.640281      50.665577
                          8       1   12fxz2             2.640281      29.251784
                          8       1   12fy3              2.640281      13.081796
                          8       1   12fy2z             2.640281      29.251784
                          8       1   12fyz2             2.640281      29.251784
                          8       1   12fz3              2.640281      13.081796

                          9       1    3s                3.113349       1.670440

                         10       1   10dx2              3.139416      12.186949
                         10       1   10dxy              3.139416      21.108416
                         10       1   10dxz              3.139416      21.108416
                         10       1   10dy2              3.139416      12.186949
                         10       1   10dyz              3.139416      21.108416
                         10       1   10dz2              3.139416      12.186949

                         11       1    8px              15.631879      44.305136
                         11       1    8py              15.631879      44.305136
                         11       1    8pz              15.631879      44.305136

                         12       1    4s               16.035860       5.711225

                         13       1    5s               82.341315      19.481547

       Atomic covalent radius [Angstrom]:                                  0.770

       Atomic van der Waals radius [Angstrom]:                             1.700

     The atoms of this atomic kind are PAW atoms (GAPW):
       Hard Gaussian function radius:                                      1.512
       Rho0 radius:                                                        1.512
       Maximum GTO radius used for PAW projector construction:            24.566

     GAPW Soft Basis Set                                  aug-SZV-MOLOPT-ae_soft

       Number of orbital shell sets:                                           2
       Number of orbital shells:                                               6
       Number of primitive Cartesian functions:                                6
       Number of Cartesian basis functions:                                   15
       Number of spherical basis functions:                                   14
       Norm type:                                                              2

       Normalised Cartesian orbitals:

                        Set   Shell   Orbital            Exponent    Coefficient

                          1       1    2s                0.070000       0.000000
                                                         0.143687       0.040037
                                                         0.313471       0.177689
                                                         0.721783       0.139661
                                                         1.876046      -0.038599

                          1       2    3s                0.070000      -0.142268
                                                         0.143687       0.288819
                                                         0.313471       0.010360
                                                         0.721783       0.175994
                                                         1.876046       0.000000

                          1       3    3px               0.070000       0.000000
                                                         0.143687       0.012825
                                                         0.313471       0.142381
                                                         0.721783       0.396426
                                                         1.876046       0.544234
                          1       3    3py               0.070000       0.000000
                                                         0.143687       0.012825
                                                         0.313471       0.142381
                                                         0.721783       0.396426
                                                         1.876046       0.544234
                          1       3    3pz               0.070000       0.000000
                                                         0.143687       0.012825
                                                         0.313471       0.142381
                                                         0.721783       0.396426
                                                         1.876046       0.544234

                          1       4    4px               0.070000       0.076505
                                                         0.143687      -0.086104
                                                         0.313471       0.010230
                                                         0.721783       0.129894
                                                         1.876046       0.000000
                          1       4    4py               0.070000       0.076505
                                                         0.143687      -0.086104
                                                         0.313471       0.010230
                                                         0.721783       0.129894
                                                         1.876046       0.000000
                          1       4    4pz               0.070000       0.076505
                                                         0.143687      -0.086104
                                                         0.313471       0.010230
                                                         0.721783       0.129894
                                                         1.876046       0.000000

                          1       5    4dx2              0.070000       0.004316
                                                         0.143687       0.012639
                                                         0.313471       0.125057
                                                         0.721783       0.080411
                                                         1.876046       0.000000
                          1       5    4dxy              0.070000       0.007476
                                                         0.143687       0.021892
                                                         0.313471       0.216606
                                                         0.721783       0.139276
                                                         1.876046       0.000000
                          1       5    4dxz              0.070000       0.007476
                                                         0.143687       0.021892
                                                         0.313471       0.216606
                                                         0.721783       0.139276
                                                         1.876046       0.000000
                          1       5    4dy2              0.070000       0.004316
                                                         0.143687       0.012639
                                                         0.313471       0.125057
                                                         0.721783       0.080411
                                                         1.876046       0.000000
                          1       5    4dyz              0.070000       0.007476
                                                         0.143687       0.021892
                                                         0.313471       0.216606
                                                         0.721783       0.139276
                                                         1.876046       0.000000
                          1       5    4dz2              0.070000       0.004316
                                                         0.143687       0.012639
                                                         0.313471       0.125057
                                                         0.721783       0.080411
                                                         1.876046       0.000000

                          2       1    1s                2.093200       0.161650

     AE Potential information for                                            ALL

       Description:                                       All-electron potential
                                          Krack, Parrinello, PCCP 2, 2105 (2000)

       Gaussian exponent of the core charge distribution:               4.109048
       Electronic configuration (s p d ...):                           4   2   0


 MOLECULE KIND INFORMATION


 All atoms are their own molecule, skipping detailed information


 TOTAL NUMBERS AND MAXIMUM NUMBERS

  Total number of            - Atomic kinds:                                   1
                             - Atoms:                                          2
                             - Shell sets:                                     4
                             - Shells:                                        12
                             - Primitive Cartesian functions:                 26
                             - Cartesian basis functions:                     30
                             - Spherical basis functions:                     28

  Maximum angular momentum of the orbital basis functions:                     2


 MODULE QUICKSTEP: ATOMIC COORDINATES IN ANGSTROM

   Atom Kind Element         X             Y             Z       Z(eff)     Mass
      1    1 C     6     15.620000     15.000000     15.000000   6.0000  12.0107
      2    1 C     6     14.380000     15.000000     15.000000   6.0000  12.0107



 SCF PARAMETERS         Density guess:                                    ATOMIC
                        --------------------------------------------------------
                        max_scf:                                             500
                        max_scf_history:                                       0
                        max_diis:                                              4
                        --------------------------------------------------------
                        eps_scf:                                        1.00E-06
                        eps_scf_history:                                0.00E+00
                        eps_diis:                                       1.00E-01
                        eps_eigval:                                     1.00E-05
                        --------------------------------------------------------
                        level_shift [a.u.]:                             0.000000
                        added MOs                                        22    0
                        --------------------------------------------------------
                        Mixing method:                            BROYDEN_MIXING
                                                charge density mixing in g-space
                        --------------------------------------------------------
                        No outer SCF

 PW_GRID| Information for grid number                                          1
 PW_GRID| Grid distributed over                                    24 processors
 PW_GRID| Real space group dimensions                                    24    1
 PW_GRID| the grid is blocked:                                                NO
 PW_GRID| Cutoff [a.u.]                                                    250.0
 PW_GRID| spherical cutoff:                                                   NO
 PW_GRID|   Bounds   1           -202     202                Points:         405
 PW_GRID|   Bounds   2           -202     202                Points:         405
 PW_GRID|   Bounds   3           -202     202                Points:         405
 PW_GRID| Volume element (a.u.^3)  0.2743E-02     Volume (a.u.^3)    182205.0337
 PW_GRID| Grid span                                                    FULLSPACE
 PW_GRID|   Distribution                         Average         Max         Min
 PW_GRID|   G-Vectors                          2767921.9     2768175     2767770
 PW_GRID|   G-Rays                                6834.4        6835        6834
 PW_GRID|   Real Space Points                  2767921.9     2788425     2624400

 PW_GRID| Information for grid number                                          2
 PW_GRID| Number of the reference grid                                         1
 PW_GRID| Grid distributed over                                    24 processors
 PW_GRID| Real space group dimensions                                    24    1
 PW_GRID| the grid is blocked:                                                NO
 PW_GRID| Cutoff [a.u.]                                                     83.3
 PW_GRID| spherical cutoff:                                                   NO
 PW_GRID|   Bounds   1           -120     119                Points:         240
 PW_GRID|   Bounds   2           -120     119                Points:         240
 PW_GRID|   Bounds   3           -120     119                Points:         240
 PW_GRID| Volume element (a.u.^3)  0.1318E-01     Volume (a.u.^3)    182205.0337
 PW_GRID| Grid span                                                    FULLSPACE
 PW_GRID|   Distribution                         Average         Max         Min
 PW_GRID|   G-Vectors                           576000.0      576240      575760
 PW_GRID|   G-Rays                                2400.0        2401        2399
 PW_GRID|   Real Space Points                   576000.0      576000      576000

 PW_GRID| Information for grid number                                          3
 PW_GRID| Number of the reference grid                                         1
 PW_GRID| Grid distributed over                                    24 processors
 PW_GRID| Real space group dimensions                                    24    1
 PW_GRID| the grid is blocked:                                                NO
 PW_GRID| Cutoff [a.u.]                                                     27.8
 PW_GRID| spherical cutoff:                                                   NO
 PW_GRID|   Bounds   1            -67      67                Points:         135
 PW_GRID|   Bounds   2            -67      67                Points:         135
 PW_GRID|   Bounds   3            -67      67                Points:         135
 PW_GRID| Volume element (a.u.^3)  0.7406E-01     Volume (a.u.^3)    182205.0337
 PW_GRID| Grid span                                                    FULLSPACE
 PW_GRID|   Distribution                         Average         Max         Min
 PW_GRID|   G-Vectors                           102515.6      102735      102330
 PW_GRID|   G-Rays                                 759.4         761         758
 PW_GRID|   Real Space Points                   102515.6      109350       91125

 PW_GRID| Information for grid number                                          4
 PW_GRID| Number of the reference grid                                         1
 PW_GRID| Grid distributed over                                    24 processors
 PW_GRID| Real space group dimensions                                    24    1
 PW_GRID| the grid is blocked:                                                NO
 PW_GRID| Cutoff [a.u.]                                                      9.3
 PW_GRID| spherical cutoff:                                                   NO
 PW_GRID|   Bounds   1            -40      39                Points:          80
 PW_GRID|   Bounds   2            -40      39                Points:          80
 PW_GRID|   Bounds   3            -40      39                Points:          80
 PW_GRID| Volume element (a.u.^3)  0.3559         Volume (a.u.^3)    182205.0337
 PW_GRID| Grid span                                                    FULLSPACE
 PW_GRID|   Distribution                         Average         Max         Min
 PW_GRID|   G-Vectors                            21333.3       21360       21280
 PW_GRID|   G-Rays                                 266.7         267         266
 PW_GRID|   Real Space Points                    21333.3       25600       19200

 POISSON| Solver                                                         WAVELET
 POISSON| Wavelet| Scaling function                                           40
 POISSON| Periodicity                                                       NONE

 RS_GRID| Information for grid number                                          1
 RS_GRID|   Bounds   1           -202     202                Points:         405
 RS_GRID|   Bounds   2           -202     202                Points:         405
 RS_GRID|   Bounds   3           -202     202                Points:         405
 RS_GRID| Real space distribution over                                  4 groups
 RS_GRID| Real space distribution along direction                              2
 RS_GRID| Border size                                                         33
 RS_GRID| Real space distribution over                                  6 groups
 RS_GRID| Real space distribution along direction                              3
 RS_GRID| Border size                                                         33
 RS_GRID|   Distribution                         Average         Max         Min
 RS_GRID|   Planes                                 167.2         168         167
 RS_GRID|   Distribution                         Average         Max         Min
 RS_GRID|   Planes                                 133.5         134         133

 RS_GRID| Information for grid number                                          2
 RS_GRID|   Bounds   1           -120     119                Points:         240
 RS_GRID|   Bounds   2           -120     119                Points:         240
 RS_GRID|   Bounds   3           -120     119                Points:         240
 RS_GRID| Real space distribution over                                  4 groups
 RS_GRID| Real space distribution along direction                              2
 RS_GRID| Border size                                                         35
 RS_GRID| Real space distribution over                                  6 groups
 RS_GRID| Real space distribution along direction                              3
 RS_GRID| Border size                                                         35
 RS_GRID|   Distribution                         Average         Max         Min
 RS_GRID|   Planes                                 130.0         130         130
 RS_GRID|   Distribution                         Average         Max         Min
 RS_GRID|   Planes                                 110.0         110         110

 RS_GRID| Information for grid number                                          3
 RS_GRID|   Bounds   1            -67      67                Points:         135
 RS_GRID|   Bounds   2            -67      67                Points:         135
 RS_GRID|   Bounds   3            -67      67                Points:         135
 RS_GRID| Real space fully replicated
 RS_GRID| Group size                                                           1

 RS_GRID| Information for grid number                                          4
 RS_GRID|   Bounds   1            -40      39                Points:          80
 RS_GRID|   Bounds   2            -40      39                Points:          80
 RS_GRID|   Bounds   3            -40      39                Points:          80
 RS_GRID| Real space fully replicated
 RS_GRID| Group size                                                           1

  HFX_INFO| Replica ID:                                                        1
  HFX_INFO| FRACTION:                                               0.2500000000
  HFX_INFO| Interaction Potential:                                       COULOMB
  HFX_INFO| EPS_SCHWARZ:                                                 1.0E-10
  HFX_INFO| EPS_SCHWARZ_FORCES                                           1.0E-08
  HFX_INFO| EPS_STORAGE_SCALING:                                         1.0E+00
  HFX_INFO| NBINS:                                                            64
  HFX_INFO| BLOCK_SIZE:                                                        1
  HFX_INFO| Number of periodic shells considered:                           NONE
  HFX_INFO| Number of periodic cells considered:                            NONE

 
 RI-RPA| using GPW style
 

 OVERLAP MATRIX CONDITION NUMBER
 1-Norm Condition Number (Estimate)
   CN : |A|*|A^-1|:  4.289E+000 *  1.449E+002   = 6.216E+002  Log(1-CN):  2.7935
 1-Norm and 2-Norm Condition Numbers using Diagonalization
   CN : |A|*|A^-1|:  4.289E+000 *  1.449E+002   = 6.216E+002  Log(1-CN):  2.7935
   CN : max/min ev:  3.122E+000 /  7.957E-003   = 3.923E+002  Log(2-CN):  2.5936

 Number of electrons:                                                         12
 Number of occupied orbitals:                                                  6
 Number of molecular orbitals:                                                28

 Number of orbital functions:                                                 28
 Number of independent orbital functions:                                     28

 Extrapolation method: initial_guess

 Atomic guess: The first density matrix is obtained in terms of atomic orbitals
               and electronic configurations assigned to each atomic kind

 Guess for atomic kind: C

 Electronic structure
    Total number of core electrons                                          0.00
    Total number of valence electrons                                       6.00
    Total number of electrons                                               6.00
    Multiplicity                                                   not specified
    S      2.00  2.00
    P      2.00


 *******************************************************************************
                  Iteration          Convergence                     Energy [au]
 *******************************************************************************
                          1        0.181972E-01                 -37.327047058214
                          2        0.113690E-01                 -37.327375013153
                          3        0.204442E-03                 -37.327563854518
                          4        0.318580E-06                 -37.327563914839

 Energy components [Hartree]           Total Energy ::          -37.327563914839
                                        Band Energy ::          -20.907151793925
                                     Kinetic Energy ::           37.918401132701
                                   Potential Energy ::          -75.245965047540
                                      Virial (-V/T) ::            1.984418192745
                                        Core Energy ::          -50.466619839572
                                          XC Energy ::           -4.803795746723
                                     Coulomb Energy ::           17.942851671456

 Orbital energies  State     L     Occupation   Energy[a.u.]          Energy[eV]

                       1     0          2.000      -9.826687         -267.397747
                       2     0          2.000      -0.471401          -12.827469

                       1     1          2.000      -0.155488           -4.231050


 Total Electron Density at R=0:                                       107.717880
 Re-scaling the density matrix to get the right number of electrons
                  # Electrons              Trace(P)               Scaling factor
                           12                12.000                        1.000


 SCF WAVEFUNCTION OPTIMIZATION

  Step     Update method      Time    Convergence         Total energy    Change
  ------------------------------------------------------------------------------

  HFX_MEM_INFO| Est. max. program size before HFX [MiB]:                    2134
  HFX_MEM_INFO| Number of cart. primitive ERI's calculated:            191263304
  HFX_MEM_INFO| Number of sph. ERI's calculated:                          230496
  HFX_MEM_INFO| Number of sph. ERI's stored in-core:                      230496
  HFX_MEM_INFO| Number of sph. ERI's stored on disk:                           0
  HFX_MEM_INFO| Number of sph. ERI's calculated on the fly:                    0
  HFX_MEM_INFO| Total memory consumption ERI's RAM [MiB]:                      2
  HFX_MEM_INFO| Whereof max-vals [MiB]:                                        1
  HFX_MEM_INFO| Total compression factor ERI's RAM:                         1.10
  HFX_MEM_INFO| Total memory consumption ERI's disk [MiB]:                     0
  HFX_MEM_INFO| Total compression factor ERI's disk:                        0.00
  HFX_MEM_INFO| Size of density/Fock matrix [MiB]:                             0
  HFX_MEM_INFO| Size of buffers [MiB]:                                         0
  HFX_MEM_INFO| Est. max. program size after HFX  [MiB]:                    2649

     1 NoMix/Diag. 0.10E+00    8.2     1.32591114       -75.7719229692 -7.58E+01
     2 Broy./Diag. 0.10E+00    4.7     0.07035765       -75.8326049100 -6.07E-02
     3 Broy./Diag. 0.10E+00    4.9     0.01253433       -75.8138421366  1.88E-02
     4 Broy./Diag. 0.10E+00    4.8     0.07463632       -75.4723750320  3.41E-01
     5 Broy./Diag. 0.10E+00    4.9     0.01673072       -75.5200580825 -4.77E-02
     6 Broy./Diag. 0.10E+00    4.9     0.02360516       -75.5654084809 -4.54E-02
     7 Broy./Diag. 0.10E+00    4.9     0.01289249       -75.5987441072 -3.33E-02
     8 Broy./Diag. 0.10E+00    5.1     0.00461396       -75.6140421523 -1.53E-02
     9 Broy./Diag. 0.10E+00    5.2     0.01027230       -75.6279836283 -1.39E-02
    10 Broy./Diag. 0.10E+00    5.3     0.00262021       -75.6364107129 -8.43E-03
    11 Broy./Diag. 0.10E+00    5.3     0.00970992       -75.6283617784  8.05E-03
    12 Broy./Diag. 0.10E+00    5.3     0.00247358       -75.6323132818 -3.95E-03
    13 Broy./Diag. 0.10E+00    5.3     0.00212290       -75.6357893991 -3.48E-03
    14 Broy./Diag. 0.10E+00    5.3     0.00314677       -75.6423693915 -6.58E-03
    15 Broy./Diag. 0.10E+00    5.3     0.00072808       -75.6452190202 -2.85E-03
    16 Broy./Diag. 0.10E+00    5.3     0.00096928       -75.6438408794  1.38E-03
    17 Broy./Diag. 0.10E+00    5.4     0.00091562       -75.6442991012 -4.58E-04
    18 Broy./Diag. 0.10E+00    5.3     0.00085083       -75.6439877073  3.11E-04
    19 Broy./Diag. 0.10E+00    5.3     0.00036697       -75.6427031525  1.28E-03
    20 Broy./Diag. 0.10E+00    5.3     0.00176629       -75.6425483792  1.55E-04
    21 Broy./Diag. 0.10E+00    5.3     0.00174650       -75.6428174913 -2.69E-04
    22 Broy./Diag. 0.10E+00    5.3     0.00116925       -75.6427617216  5.58E-05
    23 Broy./Diag. 0.10E+00    5.4     0.00151359       -75.6428714888 -1.10E-04
    24 Broy./Diag. 0.10E+00    5.4     0.00138231       -75.6425790230  2.92E-04
    25 Broy./Diag. 0.10E+00    5.3     0.00129722       -75.6427756633 -1.97E-04
    26 Broy./Diag. 0.10E+00    5.3     0.00111493       -75.6426564388  1.19E-04
    27 Broy./Diag. 0.10E+00    5.3     0.00112673       -75.6432908416 -6.34E-04
    28 Broy./Diag. 0.10E+00    5.3     0.00122346       -75.6431642120  1.27E-04
    29 Broy./Diag. 0.10E+00    5.3     0.00096874       -75.6430729989  9.12E-05
    30 Broy./Diag. 0.10E+00    5.4     0.00111363       -75.6432055670 -1.33E-04
    31 Broy./Diag. 0.10E+00    5.3     0.00087127       -75.6430577185  1.48E-04
    32 Broy./Diag. 0.10E+00    5.3     0.00092296       -75.6429863301  7.14E-05
    33 Broy./Diag. 0.10E+00    5.4     0.00113310       -75.6429348511  5.15E-05
    34 Broy./Diag. 0.10E+00    5.3     0.00108029       -75.6429068733  2.80E-05
    35 Broy./Diag. 0.10E+00    5.3     0.00103524       -75.6432183425 -3.11E-04
    36 Broy./Diag. 0.10E+00    5.3     0.00049757       -75.6433745255 -1.56E-04
    37 Broy./Diag. 0.10E+00    5.3     0.00066204       -75.6432048995  1.70E-04
    38 Broy./Diag. 0.10E+00    5.3     0.00077232       -75.6432445738 -3.97E-05
    39 Broy./Diag. 0.10E+00    5.4     0.00073310       -75.6436631555 -4.19E-04
    40 Broy./Diag. 0.10E+00    5.3     0.00137272       -75.6427909605  8.72E-04
    41 Broy./Diag. 0.10E+00    5.3     0.00043292       -75.6432456182 -4.55E-04
    42 Broy./Diag. 0.10E+00    5.3     0.00194919       -75.6428472878  3.98E-04
    43 Broy./Diag. 0.10E+00    5.3     0.00191020       -75.6430699815 -2.23E-04
    44 Broy./Diag. 0.10E+00    5.3     0.00110758       -75.6424913332  5.79E-04
    45 Broy./Diag. 0.10E+00    5.3     0.00246129       -75.6428436038 -3.52E-04
    46 Broy./Diag. 0.10E+00    5.3     0.00111088       -75.6429471870 -1.04E-04
    47 Broy./Diag. 0.10E+00    5.3     0.00085332       -75.6428142819  1.33E-04
    48 Broy./Diag. 0.10E+00    5.4     0.00723678       -75.6458939026 -3.08E-03
    49 Broy./Diag. 0.10E+00    5.4     0.00632611       -75.6454898998  4.04E-04
    50 Broy./Diag. 0.10E+00    5.4     0.00495725       -75.6441199230  1.37E-03
    51 Broy./Diag. 0.10E+00    5.3     0.00227130       -75.6429589482  1.16E-03
    52 Broy./Diag. 0.10E+00    5.3     0.00172940       -75.6425632567  3.96E-04
    53 Broy./Diag. 0.10E+00    5.4     0.00067465       -75.6421715454  3.92E-04
    54 Broy./Diag. 0.10E+00    5.3     0.00098620       -75.6419858284  1.86E-04
    55 Broy./Diag. 0.10E+00    5.3     0.00111411       -75.6419828993  2.93E-06
    56 Broy./Diag. 0.10E+00    5.4     0.00077214       -75.6418836082  9.93E-05
    57 Broy./Diag. 0.10E+00    5.3     0.00033360       -75.6421195164 -2.36E-04
    58 Broy./Diag. 0.10E+00    5.3     0.00042311       -75.6428139448 -6.94E-04
    59 Broy./Diag. 0.10E+00    5.3     0.00035636       -75.6427565733  5.74E-05
    60 Broy./Diag. 0.10E+00    5.3     0.00022567       -75.6428032369 -4.67E-05
    61 Broy./Diag. 0.10E+00    5.3     0.00022267       -75.6428092780 -6.04E-06
    62 Broy./Diag. 0.10E+00    5.4     0.00028619       -75.6428296973 -2.04E-05
    63 Broy./Diag. 0.10E+00    5.3     0.00035843       -75.6428629178 -3.32E-05
    64 Broy./Diag. 0.10E+00    5.3     0.00044841       -75.6428321922  3.07E-05
    65 Broy./Diag. 0.10E+00    5.4     0.00095749       -75.6427759871  5.62E-05
    66 Broy./Diag. 0.10E+00    5.4     0.00068881       -75.6426271867  1.49E-04
    67 Broy./Diag. 0.10E+00    5.3     0.00083550       -75.6429316623 -3.04E-04
    68 Broy./Diag. 0.10E+00    5.3     0.00102957       -75.6430494168 -1.18E-04
    69 Broy./Diag. 0.10E+00    5.3     0.00130120       -75.6428362313  2.13E-04
    70 Broy./Diag. 0.10E+00    5.3     0.00164567       -75.6426611745  1.75E-04
    71 Broy./Diag. 0.10E+00    5.3     0.00208533       -75.6426713694 -1.02E-05
    72 Broy./Diag. 0.10E+00    5.3     0.00259098       -75.6426739701 -2.60E-06
    73 Broy./Diag. 0.10E+00    5.4     0.00324274       -75.6420003037  6.74E-04
    74 Broy./Diag. 0.10E+00    5.4     0.00405267       -75.6417675684  2.33E-04
    75 Broy./Diag. 0.10E+00    5.3     0.00507437       -75.6416740705  9.35E-05
    76 Broy./Diag. 0.10E+00    5.3     0.00629759       -75.6418222920 -1.48E-04
    77 Broy./Diag. 0.10E+00    5.3     0.00784315       -75.6414859498  3.36E-04
    78 Broy./Diag. 0.10E+00    5.3     0.00974505       -75.6407106715  7.75E-04
    79 Broy./Diag. 0.10E+00    5.4     0.01209801       -75.6391671446  1.54E-03
    80 Broy./Diag. 0.10E+00    5.3     0.01496568       -75.6371526598  2.01E-03
    81 Broy./Diag. 0.10E+00    5.3     0.01809579       -75.6340907293  3.06E-03
    82 Broy./Diag. 0.10E+00    5.3     0.02147506       -75.6289366949  5.15E-03
    83 Broy./Diag. 0.10E+00    5.3     0.02493592       -75.6211551682  7.78E-03
    84 Broy./Diag. 0.10E+00    5.3     0.03029498       -75.6103022300  1.09E-02
    85 Broy./Diag. 0.10E+00    5.3     0.04359060       -75.5967365287  1.36E-02
    86 Broy./Diag. 0.10E+00    5.3     0.05694998       -75.5776241405  1.91E-02
    87 Broy./Diag. 0.10E+00    5.3     0.06920788       -75.5511827791  2.64E-02
    88 Broy./Diag. 0.10E+00    5.3     0.07806724       -75.5173233237  3.39E-02
    89 Broy./Diag. 0.10E+00    5.3     0.08063752       -75.4794869141  3.78E-02
    90 Broy./Diag. 0.10E+00    5.4     0.07551306       -75.4410461912  3.84E-02
    91 Broy./Diag. 0.10E+00    5.3     0.06535823       -75.4047250442  3.63E-02
    92 Broy./Diag. 0.10E+00    5.2     0.05746383       -75.3715411408  3.32E-02
    93 Broy./Diag. 0.10E+00    5.3     0.04779516       -75.3387104548  3.28E-02
    94 Broy./Diag. 0.10E+00    5.3     0.03836222       -75.2978733484  4.08E-02
    95 Broy./Diag. 0.10E+00    5.3     0.02280853       -75.2573872298  4.05E-02
    96 Broy./Diag. 0.10E+00    5.3     0.02144059       -75.2311758761  2.62E-02
    97 Broy./Diag. 0.10E+00    5.3     0.01903338       -75.2019940224  2.92E-02
    98 Broy./Diag. 0.10E+00    5.4     0.01384519       -75.1645645825  3.74E-02
    99 Broy./Diag. 0.10E+00    5.3     0.04969933       -75.3143724292 -1.50E-01
   100 Broy./Diag. 0.10E+00    5.3     0.02900229       -75.4097771606 -9.54E-02
   101 Broy./Diag. 0.10E+00    5.3     0.09778259       -75.7781543261 -3.68E-01
   102 Broy./Diag. 0.10E+00    5.3     0.10428342       -75.8702574282 -9.21E-02
   103 Broy./Diag. 0.10E+00    5.3     0.08632234       -75.6467499708  2.24E-01
   104 Broy./Diag. 0.10E+00    5.3     0.07014919       -75.6495432361 -2.79E-03
   105 Broy./Diag. 0.10E+00    5.3     0.14745253       -75.5410575216  1.08E-01
   106 Broy./Diag. 0.10E+00    5.3     0.24064115       -75.3861933264  1.55E-01
   107 Broy./Diag. 0.10E+00    5.3     0.18581377       -75.2335387486  1.53E-01
   108 Broy./Diag. 0.10E+00    5.3     0.04460228       -75.1050077945  1.29E-01
   109 Broy./Diag. 0.10E+00    5.3     0.22087827       -75.6072643555 -5.02E-01
   110 Broy./Diag. 0.10E+00    5.3     0.20592597       -75.8228775134 -2.16E-01
   111 Broy./Diag. 0.10E+00    5.3     0.13595420       -75.6060445059  2.17E-01
   112 Broy./Diag. 0.10E+00    5.3     0.08241665       -75.5641885764  4.19E-02
   113 Broy./Diag. 0.10E+00    5.3     0.10824728       -75.5733493338 -9.16E-03
   114 Broy./Diag. 0.10E+00    5.3     0.09644208       -75.6173674580 -4.40E-02
   115 Broy./Diag. 0.10E+00    5.3     0.04517068       -75.6391511007 -2.18E-02
   116 Broy./Diag. 0.10E+00    5.4     0.04625606       -75.6416670854 -2.52E-03
   117 Broy./Diag. 0.10E+00    5.3     0.04324914       -75.6541123380 -1.24E-02
   118 Broy./Diag. 0.10E+00    5.3     0.04311977       -75.6543586930 -2.46E-04
   119 Broy./Diag. 0.10E+00    5.3     0.05692774       -75.6588676122 -4.51E-03
   120 Broy./Diag. 0.10E+00    5.3     0.05450699       -75.6791870118 -2.03E-02
   121 Broy./Diag. 0.10E+00    5.3     0.05597745       -75.6424267052  3.68E-02
   122 Broy./Diag. 0.10E+00    5.3     0.05977492       -75.5838291047  5.86E-02
   123 Broy./Diag. 0.10E+00    5.5     0.06192441       -75.5348766190  4.90E-02
   124 Broy./Diag. 0.10E+00    5.4     0.04185950       -75.5000698367  3.48E-02
   125 Broy./Diag. 0.10E+00    5.3     0.04506867       -75.4760919331  2.40E-02
   126 Broy./Diag. 0.10E+00    5.3     0.03940498       -75.4624350828  1.37E-02
   127 Broy./Diag. 0.10E+00    5.3     0.03630510       -75.4224207142  4.00E-02
   128 Broy./Diag. 0.10E+00    5.3     0.05003393       -75.3906496661  3.18E-02
   129 Broy./Diag. 0.10E+00    5.3     0.05683621       -75.3996540930 -9.00E-03
   130 Broy./Diag. 0.10E+00    5.3     0.07133037       -75.3550068223  4.46E-02
   131 Broy./Diag. 0.10E+00    5.3     0.06625904       -75.3257264164  2.93E-02
   132 Broy./Diag. 0.10E+00    5.3     0.05678044       -75.2548350615  7.09E-02
   133 Broy./Diag. 0.10E+00    5.3     0.12223585       -75.2574129107 -2.58E-03
   134 Broy./Diag. 0.10E+00    5.3     0.10696847       -75.3083056502 -5.09E-02
   135 Broy./Diag. 0.10E+00    5.3     0.07797648       -75.3618654941 -5.36E-02
   136 Broy./Diag. 0.10E+00    5.3     0.06218273       -75.3501092726  1.18E-02
   137 Broy./Diag. 0.10E+00    5.4     0.03698738       -75.4423339062 -9.22E-02
   138 Broy./Diag. 0.10E+00    5.4     0.02952632       -75.3863823273  5.60E-02
   139 Broy./Diag. 0.10E+00    5.4     0.01211685       -75.4078219633 -2.14E-02
   140 Broy./Diag. 0.10E+00    5.3     0.01244231       -75.4311855009 -2.34E-02
   141 Broy./Diag. 0.10E+00    5.3     0.08235224       -75.6950468943 -2.64E-01
   142 Broy./Diag. 0.10E+00    5.3     0.04798093       -75.7789209576 -8.39E-02
   143 Broy./Diag. 0.10E+00    5.3     0.11614257       -76.0605297156 -2.82E-01
   144 Broy./Diag. 0.10E+00    5.3     0.07572268       -76.0993442482 -3.88E-02
   145 Broy./Diag. 0.10E+00    5.3     0.03945972       -76.0778128742  2.15E-02
   146 Broy./Diag. 0.10E+00    5.3     0.09510516       -76.1184891531 -4.07E-02
   147 Broy./Diag. 0.10E+00    5.5     0.12071072       -75.7778741580  3.41E-01
   148 Broy./Diag. 0.10E+00    5.3     0.03209517       -75.5680321737  2.10E-01
   149 Broy./Diag. 0.10E+00    5.4     0.04348365       -75.5771961150 -9.16E-03
   150 Broy./Diag. 0.10E+00    5.3     0.17238942       -75.5862574829 -9.06E-03
   151 Broy./Diag. 0.10E+00    5.3     0.16433568       -75.5819637156  4.29E-03
   152 Broy./Diag. 0.10E+00    5.3     0.08554729       -75.5797518327  2.21E-03
   153 Broy./Diag. 0.10E+00    5.4     0.05805510       -75.6010459295 -2.13E-02
   154 Broy./Diag. 0.10E+00    5.3     0.04391289       -75.6377384297 -3.67E-02
   155 Broy./Diag. 0.10E+00    5.3     0.02731200       -75.6395925020 -1.85E-03
   156 Broy./Diag. 0.10E+00    5.3     0.01849500       -75.6596229110 -2.00E-02
   157 Broy./Diag. 0.10E+00    5.3     0.03266528       -75.6372518231  2.24E-02
   158 Broy./Diag. 0.10E+00    5.4     0.03305703       -75.6478284024 -1.06E-02
   159 Broy./Diag. 0.10E+00    5.3     0.03242663       -75.6474970868  3.31E-04
   160 Broy./Diag. 0.10E+00    5.3     0.05296664       -75.6111474424  3.63E-02
   161 Broy./Diag. 0.10E+00    5.4     0.02702714       -75.6165511094 -5.40E-03
   162 Broy./Diag. 0.10E+00    5.3     0.01702688       -75.6173992204 -8.48E-04
   163 Broy./Diag. 0.10E+00    5.3     0.00967507       -75.6186978325 -1.30E-03
   164 Broy./Diag. 0.10E+00    5.3     0.01074974       -75.6152165739  3.48E-03
   165 Broy./Diag. 0.10E+00    5.3     0.01195444       -75.6166831161 -1.47E-03
   166 Broy./Diag. 0.10E+00    5.3     0.01769105       -75.6040275399  1.27E-02
   167 Broy./Diag. 0.10E+00    5.3     0.01517068       -75.6073572719 -3.33E-03
   168 Broy./Diag. 0.10E+00    5.3     0.03751661       -75.6409573727 -3.36E-02
   169 Broy./Diag. 0.10E+00    5.3     0.01387459       -75.6527298169 -1.18E-02
   170 Broy./Diag. 0.10E+00    5.3     0.01365385       -75.6282738912  2.45E-02
   171 Broy./Diag. 0.10E+00    5.3     0.01472980       -75.6214757507  6.80E-03
   172 Broy./Diag. 0.10E+00    5.3     0.02896510       -75.6266849944 -5.21E-03
   173 Broy./Diag. 0.10E+00    5.5     0.04188673       -75.5970381688  2.96E-02
   174 Broy./Diag. 0.10E+00    5.3     0.02671486       -75.5972077353 -1.70E-04
   175 Broy./Diag. 0.10E+00    5.3     0.01914914       -75.6020366498 -4.83E-03
   176 Broy./Diag. 0.10E+00    5.3     0.02159001       -75.6162074683 -1.42E-02
   177 Broy./Diag. 0.10E+00    5.4     0.03063036       -75.6264669545 -1.03E-02
   178 Broy./Diag. 0.10E+00    5.3     0.01778236       -75.6272703676 -8.03E-04
   179 Broy./Diag. 0.10E+00    5.3     0.01141257       -75.6309061526 -3.64E-03
   180 Broy./Diag. 0.10E+00    5.3     0.01365077       -75.6326601961 -1.75E-03
   181 Broy./Diag. 0.10E+00    5.3     0.01791018       -75.6339047944 -1.24E-03
   182 Broy./Diag. 0.10E+00    5.3     0.02354163       -75.6371797880 -3.27E-03
   183 Broy./Diag. 0.10E+00    5.3     0.02938550       -75.6385151992 -1.34E-03
   184 Broy./Diag. 0.10E+00    5.3     0.03630926       -75.6400327800 -1.52E-03
   185 Broy./Diag. 0.10E+00    5.3     0.04185120       -75.6359611609  4.07E-03
   186 Broy./Diag. 0.10E+00    5.3     0.04472482       -75.6274905568  8.47E-03
   187 Broy./Diag. 0.10E+00    5.3     0.04736558       -75.6094924841  1.80E-02
   188 Broy./Diag. 0.10E+00    5.3     0.06329207       -75.5837876485  2.57E-02
   189 Broy./Diag. 0.10E+00    5.4     0.07421390       -75.5523193404  3.15E-02
   190 Broy./Diag. 0.10E+00    5.3     0.07778068       -75.5140592660  3.83E-02
   191 Broy./Diag. 0.10E+00    5.3     0.07481079       -75.4778365425  3.62E-02
   192 Broy./Diag. 0.10E+00    5.3     0.06881638       -75.4391563989  3.87E-02
   193 Broy./Diag. 0.10E+00    5.3     0.05738560       -75.4098003025  2.94E-02
   194 Broy./Diag. 0.10E+00    5.3     0.04503533       -75.3851320721  2.47E-02
   195 Broy./Diag. 0.10E+00    5.3     0.02255367       -75.3772059279  7.93E-03
   196 Broy./Diag. 0.10E+00    5.3     0.02666751       -75.3507057985  2.65E-02
   197 Broy./Diag. 0.10E+00    5.4     0.07046569       -75.2860711061  6.46E-02
   198 Broy./Diag. 0.10E+00    5.3     0.06931281       -75.2443755418  4.17E-02
   199 Broy./Diag. 0.10E+00    5.3     0.06654538       -75.1900378224  5.43E-02
   200 Broy./Diag. 0.10E+00    5.3     0.06226677       -75.1498480510  4.02E-02
   201 Broy./Diag. 0.10E+00    5.4     0.05652971       -75.0898817759  6.00E-02
   202 Broy./Diag. 0.10E+00    5.4     0.05092884       -75.0840463999  5.84E-03
   203 Broy./Diag. 0.10E+00    5.4     0.10264981       -75.2097048486 -1.26E-01
   204 Broy./Diag. 0.10E+00    5.3     0.10625542       -75.3999897649 -1.90E-01
   205 Broy./Diag. 0.10E+00    5.3     0.05534745       -75.4136751696 -1.37E-02
   206 Broy./Diag. 0.10E+00    5.3     0.05242960       -75.4351602291 -2.15E-02
   207 Broy./Diag. 0.10E+00    5.3     0.05533985       -75.5055867240 -7.04E-02
   208 Broy./Diag. 0.10E+00    5.3     0.12185972       -75.6396742186 -1.34E-01
   209 Broy./Diag. 0.10E+00    5.4     0.08809705       -75.6608958647 -2.12E-02
   210 Broy./Diag. 0.10E+00    5.3     0.11775161       -75.6287379182  3.22E-02
   211 Broy./Diag. 0.10E+00    5.4     0.07886679       -75.6204455266  8.29E-03
   212 Broy./Diag. 0.10E+00    5.5     0.14299933       -75.6238437712 -3.40E-03
   213 Broy./Diag. 0.10E+00    5.3     0.13924973       -75.5958338493  2.80E-02
   214 Broy./Diag. 0.10E+00    5.3     0.10118507       -75.5932528337  2.58E-03
   215 Broy./Diag. 0.10E+00    5.4     0.16554744       -75.5497323516  4.35E-02
   216 Broy./Diag. 0.10E+00    5.3     0.13781468       -75.4868767409  6.29E-02
   217 Broy./Diag. 0.10E+00    5.4     0.13251125       -75.4791446318  7.73E-03
   218 Broy./Diag. 0.10E+00    5.3     0.06335895       -75.3887924619  9.04E-02
   219 Broy./Diag. 0.10E+00    5.3     0.07120115       -75.3954534893 -6.66E-03
   220 Broy./Diag. 0.10E+00    5.3     0.05218605       -75.4048935797 -9.44E-03
   221 Broy./Diag. 0.10E+00    5.3     0.03627157       -75.4078472765 -2.95E-03
   222 Broy./Diag. 0.10E+00    5.4     0.11633278       -75.2465801389  1.61E-01
   223 Broy./Diag. 0.10E+00    5.4     0.15444870       -75.2612441660 -1.47E-02
   224 Broy./Diag. 0.10E+00    5.3     0.13107261       -75.3653342903 -1.04E-01
   225 Broy./Diag. 0.10E+00    5.4     0.04054639       -75.3007998065  6.45E-02
   226 Broy./Diag. 0.10E+00    5.4     0.11234948       -75.3196160964 -1.88E-02
   227 Broy./Diag. 0.10E+00    5.3     0.09530959       -75.3274217311 -7.81E-03
   228 Broy./Diag. 0.10E+00    5.3     0.09600940       -75.3069575904  2.05E-02
   229 Broy./Diag. 0.10E+00    5.3     0.19380658       -75.5642712575 -2.57E-01
   230 Broy./Diag. 0.10E+00    5.3     0.30735491       -75.5337344179  3.05E-02
   231 Broy./Diag. 0.10E+00    5.3     0.21607532       -75.5640618236 -3.03E-02
   232 Broy./Diag. 0.10E+00    5.3     0.16452546       -75.7312796591 -1.67E-01
   233 Broy./Diag. 0.10E+00    5.3     0.03615068       -75.7046977711  2.66E-02
   234 Broy./Diag. 0.10E+00    5.3     0.02095671       -75.6729622650  3.17E-02
   235 Broy./Diag. 0.10E+00    5.4     0.02356995       -75.6728983977  6.39E-05
   236 Broy./Diag. 0.10E+00    5.3     0.13023051       -75.7113881367 -3.85E-02
   237 Broy./Diag. 0.10E+00    5.3     0.05170201       -75.7259107526 -1.45E-02
   238 Broy./Diag. 0.10E+00    5.3     0.04930705       -75.7397939065 -1.39E-02
   239 Broy./Diag. 0.10E+00    5.3     0.07219962       -75.7239736393  1.58E-02
   240 Broy./Diag. 0.10E+00    5.4     0.03254150       -75.7163660879  7.61E-03
   241 Broy./Diag. 0.10E+00    5.4     0.06200887       -75.6788496490  3.75E-02
   242 Broy./Diag. 0.10E+00    5.4     0.02488054       -75.6594053772  1.94E-02
   243 Broy./Diag. 0.10E+00    5.4     0.04127403       -75.6664596838 -7.05E-03
   244 Broy./Diag. 0.10E+00    5.3     0.04585054       -75.6901225841 -2.37E-02
   245 Broy./Diag. 0.10E+00    5.4     0.00774001       -75.6794459109  1.07E-02
   246 Broy./Diag. 0.10E+00    5.3     0.05962222       -75.6526124166  2.68E-02
   247 Broy./Diag. 0.10E+00    5.4     0.08952095       -75.6279092898  2.47E-02
   248 Broy./Diag. 0.10E+00    5.4     0.09719776       -75.6597892582 -3.19E-02
   249 Broy./Diag. 0.10E+00    5.4     0.03601222       -75.7002097992 -4.04E-02
   250 Broy./Diag. 0.10E+00    5.3     0.01899069       -75.6907675768  9.44E-03
   251 Broy./Diag. 0.10E+00    5.4     0.00664228       -75.6660142314  2.48E-02
   252 Broy./Diag. 0.10E+00    5.3     0.00415081       -75.6561329655  9.88E-03
   253 Broy./Diag. 0.10E+00    5.3     0.02289671       -75.6533964707  2.74E-03
   254 Broy./Diag. 0.10E+00    5.3     0.02774208       -75.6616470807 -8.25E-03
   255 Broy./Diag. 0.10E+00    5.3     0.01899912       -75.6598322749  1.81E-03
   256 Broy./Diag. 0.10E+00    5.3     0.03397379       -75.6606305252 -7.98E-04
   257 Broy./Diag. 0.10E+00    5.4     0.07855638       -75.6504016857  1.02E-02
   258 Broy./Diag. 0.10E+00    5.3     0.02540592       -75.6591487901 -8.75E-03
   259 Broy./Diag. 0.10E+00    5.3     0.02733170       -75.6528898441  6.26E-03
   260 Broy./Diag. 0.10E+00    5.3     0.02887273       -75.6547829436 -1.89E-03
   261 Broy./Diag. 0.10E+00    5.3     0.02613959       -75.6547589247  2.40E-05
   262 Broy./Diag. 0.10E+00    5.3     0.02390659       -75.6548949228 -1.36E-04
   263 Broy./Diag. 0.10E+00    5.3     0.01924890       -75.6533482772  1.55E-03
   264 Broy./Diag. 0.10E+00    5.3     0.01294894       -75.6546509636 -1.30E-03
   265 Broy./Diag. 0.10E+00    5.4     0.01088461       -75.6600837693 -5.43E-03
   266 Broy./Diag. 0.10E+00    5.3     0.01297092       -75.6614336318 -1.35E-03
   267 Broy./Diag. 0.10E+00    5.3     0.01442974       -75.6596203446  1.81E-03
   268 Broy./Diag. 0.10E+00    5.4     0.01754743       -75.6592849084  3.35E-04
   269 Broy./Diag. 0.10E+00    5.3     0.02936136       -75.6505119645  8.77E-03
   270 Broy./Diag. 0.10E+00    5.4     0.03034191       -75.6385099648  1.20E-02
   271 Broy./Diag. 0.10E+00    5.3     0.03641379       -75.6291922154  9.32E-03
   272 Broy./Diag. 0.10E+00    5.3     0.05952564       -75.6125349679  1.67E-02
   273 Broy./Diag. 0.10E+00    5.3     0.07847438       -75.5879054385  2.46E-02
   274 Broy./Diag. 0.10E+00    5.3     0.09834029       -75.5680043706  1.99E-02
   275 Broy./Diag. 0.10E+00    5.3     0.10463558       -75.5404661174  2.75E-02
   276 Broy./Diag. 0.10E+00    5.3     0.08675512       -75.5091450667  3.13E-02
   277 Broy./Diag. 0.10E+00    5.4     0.06752208       -75.4689887211  4.02E-02
   278 Broy./Diag. 0.10E+00    5.4     0.06017715       -75.4364336654  3.26E-02
   279 Broy./Diag. 0.10E+00    5.3     0.05517575       -75.4691350571 -3.27E-02
   280 Broy./Diag. 0.10E+00    5.4     0.06192578       -75.4594085760  9.73E-03
   281 Broy./Diag. 0.10E+00    5.3     0.06592763       -75.4068352377  5.26E-02
   282 Broy./Diag. 0.10E+00    5.3     0.06076442       -75.3392099840  6.76E-02
   283 Broy./Diag. 0.10E+00    5.3     0.05822419       -75.2937890867  4.54E-02
   284 Broy./Diag. 0.10E+00    5.3     0.04540738       -75.2681095176  2.57E-02
   285 Broy./Diag. 0.10E+00    5.3     0.16585254       -75.3863586406 -1.18E-01
   286 Broy./Diag. 0.10E+00    5.3     0.09136253       -75.4316469390 -4.53E-02
   287 Broy./Diag. 0.10E+00    5.3     0.08354732       -75.4241514896  7.50E-03
   288 Broy./Diag. 0.10E+00    5.3     0.06712274       -75.4737754397 -4.96E-02
   289 Broy./Diag. 0.10E+00    5.3     0.05335268       -75.4802238945 -6.45E-03
   290 Broy./Diag. 0.10E+00    5.4     0.02496563       -75.5127871660 -3.26E-02
   291 Broy./Diag. 0.10E+00    5.3     0.11554630       -75.3911765116  1.22E-01
   292 Broy./Diag. 0.10E+00    5.3     0.13271799       -75.2713951249  1.20E-01
   293 Broy./Diag. 0.10E+00    5.4     0.11917292       -75.2226110638  4.88E-02
   294 Broy./Diag. 0.10E+00    5.3     0.05353903       -75.2740749055 -5.15E-02
   295 Broy./Diag. 0.10E+00    5.4     0.06580703       -75.2574470289  1.66E-02
   296 Broy./Diag. 0.10E+00    5.4     0.04754638       -75.2712000069 -1.38E-02
   297 Broy./Diag. 0.10E+00    5.4     0.05451801       -75.4626602740 -1.91E-01
   298 Broy./Diag. 0.10E+00    5.4     0.07143199       -75.4780723797 -1.54E-02
   299 Broy./Diag. 0.10E+00    5.4     0.03840606       -75.4602583993  1.78E-02
   300 Broy./Diag. 0.10E+00    5.5     0.05417824       -75.4780022826 -1.77E-02
   301 Broy./Diag. 0.10E+00    5.3     0.04773303       -75.5523149534 -7.43E-02
   302 Broy./Diag. 0.10E+00    5.4     0.15915555       -75.6200181466 -6.77E-02
   303 Broy./Diag. 0.10E+00    5.3     0.08600508       -75.7543252079 -1.34E-01
   304 Broy./Diag. 0.10E+00    5.3     0.10252473       -75.7132864237  4.10E-02
   305 Broy./Diag. 0.10E+00    5.4     0.17815745       -75.7327333201 -1.94E-02
   306 Broy./Diag. 0.10E+00    5.3     0.15106035       -75.8288690758 -9.61E-02
   307 Broy./Diag. 0.10E+00    5.4     0.13382855       -75.8306553408 -1.79E-03
   308 Broy./Diag. 0.10E+00    5.3     0.11787923       -75.7202008546  1.10E-01
   309 Broy./Diag. 0.10E+00    5.3     0.09381133       -75.7006627612  1.95E-02
   310 Broy./Diag. 0.10E+00    5.3     0.09270423       -75.7519710834 -5.13E-02
   311 Broy./Diag. 0.10E+00    5.3     0.09758558       -75.8110292072 -5.91E-02
   312 Broy./Diag. 0.10E+00    5.3     0.07742419       -75.8277585738 -1.67E-02
   313 Broy./Diag. 0.10E+00    5.4     0.07261260       -75.8063444876  2.14E-02
   314 Broy./Diag. 0.10E+00    5.3     0.13306729       -75.7558977562  5.04E-02
   315 Broy./Diag. 0.10E+00    5.4     0.06173957       -75.7528894211  3.01E-03
   316 Broy./Diag. 0.10E+00    5.3     0.06912270       -75.7370461957  1.58E-02
   317 Broy./Diag. 0.10E+00    5.2     0.04135221       -75.7197415266  1.73E-02
   318 Broy./Diag. 0.10E+00    5.3     0.01788587       -75.7254645154 -5.72E-03
   319 Broy./Diag. 0.10E+00    5.3     0.02156651       -75.7104427794  1.50E-02
   320 Broy./Diag. 0.10E+00    5.3     0.03107003       -75.7076204232  2.82E-03
   321 Broy./Diag. 0.10E+00    5.3     0.06069249       -75.7001921091  7.43E-03
   322 Broy./Diag. 0.10E+00    5.3     0.07699021       -75.6800539853  2.01E-02
   323 Broy./Diag. 0.10E+00    5.3     0.07648431       -75.6609872687  1.91E-02
[...]
   418 Broy./Diag. 0.10E+00    5.4     0.04170882       -75.7053373970 -1.47E-03
   419 Broy./Diag. 0.10E+00    5.4     0.03636299       -75.7143065176 -8.97E-03
   420 Broy./Diag. 0.10E+00    5.3     0.03403415       -75.6655175882  4.88E-02
   421 Broy./Diag. 0.10E+00    5.2     0.10347120       -75.6364557510  2.91E-02
   422 Broy./Diag. 0.10E+00    5.3     0.23742738       -75.6133642930  2.31E-02
   423 Broy./Diag. 0.10E+00    5.4     0.08693151       -75.5934758363  1.99E-02
   424 Broy./Diag. 0.10E+00    5.4     0.10940268       -75.6553365168 -6.19E-02
   425 Broy./Diag. 0.10E+00    5.4     0.04631566       -75.6827715328 -2.74E-02
   426 Broy./Diag. 0.10E+00    5.3     0.01874422       -75.6656018563  1.72E-02
   427 Broy./Diag. 0.10E+00    5.3     0.03461344       -75.6581858000  7.42E-03
   428 Broy./Diag. 0.10E+00    5.3     0.05011234       -75.6702013159 -1.20E-02
   429 Broy./Diag. 0.10E+00    5.3     0.04632073       -75.6808935034 -1.07E-02
   430 Broy./Diag. 0.10E+00    5.3     0.05405563       -75.6765496957  4.34E-03
   431 Broy./Diag. 0.10E+00    5.3     0.05263647       -75.6754897820  1.06E-03
   432 Broy./Diag. 0.10E+00    5.4     0.05663283       -75.6833146389 -7.82E-03
   433 Broy./Diag. 0.10E+00    5.4     0.06182293       -75.6800670425  3.25E-03
   434 Broy./Diag. 0.10E+00    5.3     0.06026285       -75.6620963618  1.80E-02
   435 Broy./Diag. 0.10E+00    5.3     0.05726574       -75.6360810422  2.60E-02
   436 Broy./Diag. 0.10E+00    5.3     0.09534540       -75.5893559888  4.67E-02
   437 Broy./Diag. 0.10E+00    5.3     0.08569856       -75.5466419303  4.27E-02
   438 Broy./Diag. 0.10E+00    5.3     0.09266818       -75.4991538769  4.75E-02
   439 Broy./Diag. 0.10E+00    5.3     0.06070597       -75.4797239427  1.94E-02
   440 Broy./Diag. 0.10E+00    5.3     0.05761448       -75.4589067837  2.08E-02
   441 Broy./Diag. 0.10E+00    5.4     0.05410595       -75.4280402505  3.09E-02
   442 Broy./Diag. 0.10E+00    5.3     0.05304535       -75.4119264616  1.61E-02
   443 Broy./Diag. 0.10E+00    5.3     0.05570482       -75.4002831591  1.16E-02
   444 Broy./Diag. 0.10E+00    5.3     0.08436775       -75.3719974196  2.83E-02
   445 Broy./Diag. 0.10E+00    5.4     0.08546681       -75.2554105408  1.17E-01
   446 Broy./Diag. 0.10E+00    5.3     0.04573501       -75.2262601273  2.92E-02
   447 Broy./Diag. 0.10E+00    5.3     0.16633429       -75.2939193503 -6.77E-02
   448 Broy./Diag. 0.10E+00    5.3     0.17168024       -75.2804348888  1.35E-02
   449 Broy./Diag. 0.10E+00    5.3     0.05360602       -75.3169404988 -3.65E-02
   450 Broy./Diag. 0.10E+00    5.3     0.09984592       -75.3293086816 -1.24E-02
   451 Broy./Diag. 0.10E+00    5.3     0.11447502       -75.4636095720 -1.34E-01
   452 Broy./Diag. 0.10E+00    5.3     0.09339650       -75.5488136504 -8.52E-02
   453 Broy./Diag. 0.10E+00    5.3     0.08307841       -75.5948877955 -4.61E-02
   454 Broy./Diag. 0.10E+00    5.3     0.08207040       -75.6119768516 -1.71E-02
   455 Broy./Diag. 0.10E+00    5.3     0.13539635       -75.6654038905 -5.34E-02
   456 Broy./Diag. 0.10E+00    5.3     0.09174659       -75.7238172624 -5.84E-02
   457 Broy./Diag. 0.10E+00    5.4     0.13460419       -75.6214852004  1.02E-01
   458 Broy./Diag. 0.10E+00    5.3     0.08635976       -75.5768297231  4.47E-02
   459 Broy./Diag. 0.10E+00    5.3     0.25190291       -75.5723110413  4.52E-03
   460 Broy./Diag. 0.10E+00    5.3     0.23900977       -75.6081455625 -3.58E-02
   461 Broy./Diag. 0.10E+00    5.3     0.16557480       -75.6584264753 -5.03E-02
   462 Broy./Diag. 0.10E+00    5.3     0.11419326       -75.6888612750 -3.04E-02
   463 Broy./Diag. 0.10E+00    5.4     0.14692070       -75.7262213066 -3.74E-02
   464 Broy./Diag. 0.10E+00    5.3     0.06797776       -75.7103854052  1.58E-02
   465 Broy./Diag. 0.10E+00    5.3     0.06110985       -75.6875725025  2.28E-02
   466 Broy./Diag. 0.10E+00    5.3     0.06875529       -75.6831043348  4.47E-03
   467 Broy./Diag. 0.10E+00    5.4     0.10588164       -75.6808618151  2.24E-03
   468 Broy./Diag. 0.10E+00    5.5     0.04003451       -75.6513668273  2.95E-02
   469 Broy./Diag. 0.10E+00    5.3     0.05219604       -75.6631814080 -1.18E-02
   470 Broy./Diag. 0.10E+00    5.3     0.15539528       -75.7095811084 -4.64E-02
   471 Broy./Diag. 0.10E+00    5.3     0.03946016       -75.6983485533  1.12E-02
   472 Broy./Diag. 0.10E+00    5.4     0.14836348       -75.6667207699  3.16E-02
   473 Broy./Diag. 0.10E+00    5.3     0.04381689       -75.6458847199  2.08E-02
   474 Broy./Diag. 0.10E+00    5.2     0.04217797       -75.6294618497  1.64E-02
   475 Broy./Diag. 0.10E+00    5.3     0.05544843       -75.6477492307 -1.83E-02
   476 Broy./Diag. 0.10E+00    5.2     0.03879094       -75.6539194746 -6.17E-03
   477 Broy./Diag. 0.10E+00    5.3     0.06200105       -75.6693217020 -1.54E-02
   478 Broy./Diag. 0.10E+00    5.3     0.06118950       -75.6699683279 -6.47E-04
   479 Broy./Diag. 0.10E+00    5.2     0.03538015       -75.6438570649  2.61E-02
   480 Broy./Diag. 0.10E+00    5.3     0.07237418       -75.6190472489  2.48E-02
   481 Broy./Diag. 0.10E+00    5.3     0.04475035       -75.6066476743  1.24E-02
   482 Broy./Diag. 0.10E+00    5.3     0.05903193       -75.6012532251  5.39E-03
   483 Broy./Diag. 0.10E+00    5.3     0.03788766       -75.5845024549  1.68E-02
   484 Broy./Diag. 0.10E+00    5.2     0.04369213       -75.5765246128  7.98E-03
   485 Broy./Diag. 0.10E+00    5.3     0.06775810       -75.5765197080  4.90E-06
   486 Broy./Diag. 0.10E+00    5.3     0.08824687       -75.6064227327 -2.99E-02
   487 Broy./Diag. 0.10E+00    5.3     0.08883489       -75.6514773765 -4.51E-02
   488 Broy./Diag. 0.10E+00    5.3     0.06559595       -75.6698182528 -1.83E-02
   489 Broy./Diag. 0.10E+00    5.3     0.04721507       -75.6666161624  3.20E-03
   490 Broy./Diag. 0.10E+00    5.3     0.03258761       -75.6597790664  6.84E-03
   491 Broy./Diag. 0.10E+00    5.3     0.02114441       -75.6536789178  6.10E-03
   492 Broy./Diag. 0.10E+00    5.4     0.06236298       -75.6534569671  2.22E-04
   493 Broy./Diag. 0.10E+00    5.4     0.05351445       -75.6410503658  1.24E-02
   494 Broy./Diag. 0.10E+00    5.3     0.05045384       -75.6252538147  1.58E-02
   495 Broy./Diag. 0.10E+00    5.3     0.03973942       -75.6042769799  2.10E-02
   496 Broy./Diag. 0.10E+00    5.4     0.04006558       -75.5747654265  2.95E-02
   497 Broy./Diag. 0.10E+00    5.4     0.03396096       -75.5918715652 -1.71E-02
   498 Broy./Diag. 0.10E+00    5.3     0.02771366       -75.6093889768 -1.75E-02
   499 Broy./Diag. 0.10E+00    5.3     0.03870560       -75.6111580386 -1.77E-03
   500 Broy./Diag. 0.10E+00    5.3     0.04432303       -75.5979407830  1.32E-02

  Leaving inner SCF loop after reaching   500 steps.


  Electronic density on regular grids:         -8.1703624538        3.8296375462
  Core density on regular grids:               12.0000000000        0.0000000000
  Hard and soft densities (Lebedev):          -32.4559786069      -28.6151353145
  Total Rho_soft + Rho1_hard - Rho1_soft      -12.0112057461
  Total charge density (r-space):              -0.0112057461
  Total Rho_soft + Rho0_soft (g-space):        -0.0112058418

  Overlap energy of the core charge distribution:               0.00003125550742
  Self energy of the core charge distribution:                -58.22549323810243
  Core Hamiltonian energy:                                    -15.11447974215657
  Hartree energy:                                              16.93451701140207
  Exchange-correlation energy:                                 -2.51654060739570
  Hartree-Fock Exchange energy:                                -2.53586430586555

  GAPW| Exc from hard and soft atomic rho1:                    -5.45076852271810
  GAPW| local Eh = 1 center integrals:                         -8.68934263368518

  Total energy:                                               -75.59794078301404

 *******************************************************************************
 *   ___                                                                       *
 *  /   \                                                                      *
 * [ABORT]                                                                     *
 *  \___/     SCF run NOT converged. To continue the calculation regardless,   *
 *    |             please set the keyword IGNORE_CONVERGENCE_FAILURE.         *
 *  O/|                                                                        *
 * /| |                                                                        *
 * / \                                                            qs_scf.F:611 *
 *******************************************************************************


 ===== Routine Calling Stack ===== 

            3 scf_env_do_scf
            2 qs_energies
            1 CP2K

 *******************************************************************************
 *   ___                                                                       *
 *  /   \                                                                      *
 * [ABORT]                                                                     *
 *  \___/     SCF run NOT converged. To continue the calculation regardless,   *
 *    |             please set the keyword IGNORE_CONVERGENCE_FAILURE.         *
 *  O/|                                                                        *
 * /| |                                                                        *
 * / \                                                            qs_scf.F:611 *
 *******************************************************************************


 ===== Routine Calling Stack ===== 

            3 scf_env_do_scf
            2 qs_energies
            1 CP2K

 *******************************************************************************
 *   ___                                                                       *
 *  /   \                                                                      *
 * [ABORT]                                                                     *
 *  \___/     SCF run NOT converged. To continue the calculation regardless,   *
 *    |             please set the keyword IGNORE_CONVERGENCE_FAILURE.         *
 *  O/|                                                                        *
 * /| |                                                                        *
 * / \                                                            qs_scf.F:611 *
 *******************************************************************************


 ===== Routine Calling Stack ===== 

            3 scf_env_do_scf
            2 qs_energies
            1 CP2K

 *******************************************************************************
 *   ___                                                                       *
 *  /   \                                                                      *
 * [ABORT]                                                                     *
 *  \___/     SCF run NOT converged. To continue the calculation regardless,   *
 *    |             please set the keyword IGNORE_CONVERGENCE_FAILURE.         *
 *  O/|                                                                        *
 * /| |                                                                        *
 * / \                                                            qs_scf.F:611 *
 *******************************************************************************


 ===== Routine Calling Stack ===== 

            3 scf_env_do_scf
            2 qs_energies
            1 CP2K

 *******************************************************************************
 *   ___                                                                       *
 *  /   \                                                                      *
 * [ABORT]                                                                     *
 *  \___/     SCF run NOT converged. To continue the calculation regardless,   *
 *    |             please set the keyword IGNORE_CONVERGENCE_FAILURE.         *
 *  O/|                                                                        *
 * /| |                                                                        *
 * / \                                                            qs_scf.F:611 *
 *******************************************************************************


 ===== Routine Calling Stack ===== 

            3 scf_env_do_scf
            2 qs_energies
            1 CP2K

 *******************************************************************************
 *   ___                                                                       *
 *  /   \                                                                      *
 * [ABORT]                                                                     *
 *  \___/     SCF run NOT converged. To continue the calculation regardless,   *
 *    |             please set the keyword IGNORE_CONVERGENCE_FAILURE.         *
 *  O/|                                                                        *
 * /| |                                                                        *
 * / \                                                            qs_scf.F:611 *
 *******************************************************************************


 ===== Routine Calling Stack ===== 

            3 scf_env_do_scf
            2 qs_energies
            1 CP2K

 *******************************************************************************
 *   ___                                                                       *
 *  /   \                                                                      *
 * [ABORT]                                                                     *
 *  \___/     SCF run NOT converged. To continue the calculation regardless,   *
 *    |             please set the keyword IGNORE_CONVERGENCE_FAILURE.         *
 *  O/|                                                                        *
 * /| |                                                                        *
 * / \                                                            qs_scf.F:611 *
 *******************************************************************************


 ===== Routine Calling Stack ===== 

            3 scf_env_do_scf
            2 qs_energies
            1 CP2K

 *******************************************************************************
 *   ___                                                                       *
 *  /   \                                                                      *
 * [ABORT]                                                                     *
 *  \___/     SCF run NOT converged. To continue the calculation regardless,   *
 *    |             please set the keyword IGNORE_CONVERGENCE_FAILURE.         *
 *  O/|                                                                        *
 * /| |                                                                        *
 * / \                                                            qs_scf.F:611 *
 *******************************************************************************


 ===== Routine Calling Stack ===== 

            3 scf_env_do_scf
            2 qs_energies
            1 CP2K

 *******************************************************************************
 *   ___                                                                       *
 *  /   \                                                                      *
 * [ABORT]                                                                     *
 *  \___/     SCF run NOT converged. To continue the calculation regardless,   *
 *    |             please set the keyword IGNORE_CONVERGENCE_FAILURE.         *
 *  O/|                                                                        *
 * /| |                                                                        *
 * / \                                                            qs_scf.F:611 *
 *******************************************************************************


 ===== Routine Calling Stack ===== 

            3 scf_env_do_scf
            2 qs_energies
            1 CP2K

 *******************************************************************************
 *   ___                                                                       *
 *  /   \                                                                      *
 * [ABORT]                                                                     *
 *  \___/     SCF run NOT converged. To continue the calculation regardless,   *
 *    |             please set the keyword IGNORE_CONVERGENCE_FAILURE.         *
 *  O/|                                                                        *
 * /| |                                                                        *
 * / \                                                            qs_scf.F:611 *
 *******************************************************************************


 ===== Routine Calling Stack ===== 

            3 scf_env_do_scf
            2 qs_energies
            1 CP2K

 *******************************************************************************
 *   ___                                                                       *
 *  /   \                                                                      *
 * [ABORT]                                                                     *
 *  \___/     SCF run NOT converged. To continue the calculation regardless,   *
 *    |             please set the keyword IGNORE_CONVERGENCE_FAILURE.         *
 *  O/|                                                                        *
 * /| |                                                                        *
 * / \                                                            qs_scf.F:611 *
 *******************************************************************************


 ===== Routine Calling Stack ===== 

            3 scf_env_do_scf
            2 qs_energies
            1 CP2K

 *******************************************************************************
 *   ___                                                                       *
 *  /   \                                                                      *
 * [ABORT]                                                                     *
 *  \___/     SCF run NOT converged. To continue the calculation regardless,   *
 *    |             please set the keyword IGNORE_CONVERGENCE_FAILURE.         *
 *  O/|                                                                        *
 * /| |                                                                        *
 * / \                                                            qs_scf.F:611 *
 *******************************************************************************


 ===== Routine Calling Stack ===== 

            3 scf_env_do_scf
            2 qs_energies
            1 CP2K

 *******************************************************************************
 *   ___                                                                       *
 *  /   \                                                                      *
 * [ABORT]                                                                     *
 *  \___/     SCF run NOT converged. To continue the calculation regardless,   *
 *    |             please set the keyword IGNORE_CONVERGENCE_FAILURE.         *
 *  O/|                                                                        *
 * /| |                                                                        *
 * / \                                                            qs_scf.F:611 *
 *******************************************************************************


 ===== Routine Calling Stack ===== 

            3 scf_env_do_scf
            2 qs_energies
            1 CP2K
