 DBCSR| CPU Multiplication driver                                           BLAS (U)
 DBCSR| Multrec recursion limit                                              512 (U)
 DBCSR| Multiplication stack size                                           1000 (D)
 DBCSR| Maximum elements for images                                    UNLIMITED (U)
 DBCSR| Multiplicative factor virtual images                                   1 (U)
 DBCSR| Use multiplication densification                                       T (D)
 DBCSR| Multiplication size stacks                                             3 (U)
 DBCSR| Use memory pool for CPU allocation                                     F (U)
 DBCSR| Number of 3D layers                                               SINGLE (U)
 DBCSR| Use MPI memory allocation                                              F (U)
 DBCSR| Use RMA algorithm                                                      F (U)
 DBCSR| Use Communication thread                                               T (U)
 DBCSR| Communication thread load                                             75 (D)
 DBCSR| MPI: My process id                                                     0
 DBCSR| MPI: Number of processes                                              24
 DBCSR| OMP: Current number of threads                                         4
 DBCSR| OMP: Max number of threads                                             4
 DBCSR| Split modifier for TAS multiplication algorithm                  1.0E+00 (U)


  **** **** ******  **  PROGRAM STARTED AT               2025-03-03 08:05:00.886
 ***** ** ***  *** **   PROGRAM STARTED ON                          i01r06c02s10
 **    ****   ******    PROGRAM STARTED BY                               di38fab
 ***** **    ** ** **   PROGRAM PROCESS ID                                353992
  **** **  *******  **  PROGRAM STARTED IN /hppfs/scratch/04/di38fab/05_MOL/W4-1
                                           1+ALK/bh/TZVP

 CP2K| version string:                 CP2K version 2025.1 (Development Version)
 CP2K| source code revision number:                                  git:47877ba
 CP2K| cp2kflags: omp libint fftw3 libxc parallel scalapack max_contr=4         
 CP2K| is freely available from                            https://www.cp2k.org/
 CP2K| Program compiled at                          Thu Feb 20 16:00:34 CET 2025
 CP2K| Program compiled on                                               login04
 CP2K| Program compiled for                                        Supermuc-foss
 CP2K| Data directory path          /hppfs/work/pn36zo/di38fab/newcp2k/cp2k/data
 CP2K| Input file name                                                    GW.inp

 GLOBAL| Force Environment number                                              1
 GLOBAL| Basis set file name            /hppfs/scratch/04/di38fab/04_TMD/BASIS_A
 GLOBAL| Potential file name            /hppfs/work/pn36zo/di38fab/cp2k/data/ALL
 GLOBAL| MM Potential file name                                     MM_POTENTIAL
 GLOBAL| Coordinate file name                                      __STD_INPUT__
 GLOBAL| Method name                                                        CP2K
 GLOBAL| Project name                                                       MoS2
 GLOBAL| Run type                                                         ENERGY
 GLOBAL| FFT library                                                       FFTW3
 GLOBAL| Diagonalization library                                       ScaLAPACK
 GLOBAL| DGEMM library                                                      BLAS
 GLOBAL| Orthonormality check for eigenvectors                          DISABLED
 GLOBAL| Matrix multiplication library                                 ScaLAPACK
 GLOBAL| All-to-all communication in single precision                          F
 GLOBAL| FFTs using library dependent lengths                                  F
 GLOBAL| Grid backend                                                       AUTO
 GLOBAL| Global print level                                               MEDIUM
 GLOBAL| MPI I/O enabled                                                       T
 GLOBAL| Total number of message passing processes                            24
 GLOBAL| Number of threads for this process                                    4
 GLOBAL| This output is from process                                           0
 GLOBAL| OpenMP stack size per thread (OMP_STACKSIZE)                    default
 GLOBAL| CPU model name             Intel(R) Xeon(R) Platinum 8174 CPU @ 3.10GHz

 MEMORY| system memory details [Kb]
 MEMORY|                        rank 0           min           max       average
 MEMORY| MemTotal             98436708      98436664      98436708      98436686
 MEMORY| MemFree              83961536      83961536      83988172      83974854
 MEMORY| Buffers                     0             0             0             0
 MEMORY| Cached                2407792       2395580       2407792       2401686
 MEMORY| Slab                  1204056       1178208       1204056       1191132
 MEMORY| SReclaimable           264016        264016        266508        265262
 MEMORY| MemLikelyFree        86633344      86633344      86650260      86641802


 *** Fundamental physical constants (SI units) ***

 *** Literature: B. J. Mohr and B. N. Taylor,
 ***             CODATA recommended values of the fundamental physical
 ***             constants: 2006, Web Version 5.1
 ***             http://physics.nist.gov/constants

 Speed of light in vacuum [m/s]                             2.99792458000000E+08
 Magnetic constant or permeability of vacuum [N/A**2]       1.25663706143592E-06
 Electric constant or permittivity of vacuum [F/m]          8.85418781762039E-12
 Planck constant (h) [J*s]                                  6.62606896000000E-34
 Planck constant (h-bar) [J*s]                              1.05457162825177E-34
 Elementary charge [C]                                      1.60217648700000E-19
 Electron mass [kg]                                         9.10938215000000E-31
 Electron g factor [ ]                                     -2.00231930436220E+00
 Proton mass [kg]                                           1.67262163700000E-27
 Fine-structure constant                                    7.29735253760000E-03
 Rydberg constant [1/m]                                     1.09737315685270E+07
 Avogadro constant [1/mol]                                  6.02214179000000E+23
 Boltzmann constant [J/K]                                   1.38065040000000E-23
 Atomic mass unit [kg]                                      1.66053878200000E-27
 Bohr radius [m]                                            5.29177208590000E-11

 *** Conversion factors ***

 [u] -> [a.u.]                                              1.82288848426455E+03
 [Angstrom] -> [Bohr] = [a.u.]                              1.88972613288564E+00
 [a.u.] = [Bohr] -> [Angstrom]                              5.29177208590000E-01
 [a.u.] -> [s]                                              2.41888432650478E-17
 [a.u.] -> [fs]                                             2.41888432650478E-02
 [a.u.] -> [J]                                              4.35974393937059E-18
 [a.u.] -> [N]                                              8.23872205491840E-08
 [a.u.] -> [K]                                              3.15774647902944E+05
 [a.u.] -> [kJ/mol]                                         2.62549961709828E+03
 [a.u.] -> [kcal/mol]                                       6.27509468713739E+02
 [a.u.] -> [Pa]                                             2.94210107994716E+13
 [a.u.] -> [bar]                                            2.94210107994716E+08
 [a.u.] -> [atm]                                            2.90362800883016E+08
 [a.u.] -> [eV]                                             2.72113838565563E+01
 [a.u.] -> [Hz]                                             6.57968392072181E+15
 [a.u.] -> [1/cm] (wave numbers)                            2.19474631370540E+05
 [a.u./Bohr**2] -> [1/cm]                                   5.14048714338585E+03
 

 CELL_TOP| Volume [angstrom^3]:                                     27000.000000
 CELL_TOP| Vector a [angstrom    30.000     0.000     0.000   |a| =    30.000000
 CELL_TOP| Vector b [angstrom     0.000    30.000     0.000   |b| =    30.000000
 CELL_TOP| Vector c [angstrom     0.000     0.000    30.000   |c| =    30.000000
 CELL_TOP| Angle (b,c), alpha [degree]:                                90.000000
 CELL_TOP| Angle (a,c), beta  [degree]:                                90.000000
 CELL_TOP| Angle (a,b), gamma [degree]:                                90.000000
 CELL_TOP| Numerically orthorhombic:                                         YES
 CELL_TOP| Periodicity                                                      NONE

 GENERATE|  Preliminary Number of Bonds generated:                             0
 GENERATE|  Achieved consistency in connectivity generation.

 CELL| Volume [angstrom^3]:                                         27000.000000
 CELL| Vector a [angstrom]:      30.000     0.000     0.000   |a| =    30.000000
 CELL| Vector b [angstrom]:       0.000    30.000     0.000   |b| =    30.000000
 CELL| Vector c [angstrom]:       0.000     0.000    30.000   |c| =    30.000000
 CELL| Angle (b,c), alpha [degree]:                                    90.000000
 CELL| Angle (a,c), beta  [degree]:                                    90.000000
 CELL| Angle (a,b), gamma [degree]:                                    90.000000
 CELL| Numerically orthorhombic:                                             YES
 CELL| Periodicity                                                          NONE

 CELL_REF| Volume [angstrom^3]:                                     27000.000000
 CELL_REF| Vector a [angstrom    30.000     0.000     0.000   |a| =    30.000000
 CELL_REF| Vector b [angstrom     0.000    30.000     0.000   |b| =    30.000000
 CELL_REF| Vector c [angstrom     0.000     0.000    30.000   |c| =    30.000000
 CELL_REF| Angle (b,c), alpha [degree]:                                90.000000
 CELL_REF| Angle (a,c), beta  [degree]:                                90.000000
 CELL_REF| Angle (a,b), gamma [degree]:                                90.000000
 CELL_REF| Numerically orthorhombic:                                         YES
 CELL_REF| Periodicity                                                      NONE

 *******************************************************************************
 *******************************************************************************
 **                                                                           **
 **     #####                         ##              ##                      **
 **    ##   ##            ##          ##              ##                      **
 **   ##     ##                       ##            ######                    **
 **   ##     ##  ##   ##  ##   #####  ##  ##   ####   ##    #####    #####    **
 **   ##     ##  ##   ##  ##  ##      ## ##   ##      ##   ##   ##  ##   ##   **
 **   ##  ## ##  ##   ##  ##  ##      ####     ###    ##   ######   ######    **
 **    ##  ###   ##   ##  ##  ##      ## ##      ##   ##   ##       ##        **
 **     #######   #####   ##   #####  ##  ##  ####    ##    #####   ##        **
 **           ##                                                    ##        **
 **                                                                           **
 **                                                ... make the atoms dance   **
 **                                                                           **
 **            Copyright (C) by CP2K developers group (2000-2025)             **
 **                      J. Chem. Phys. 152, 194103 (2020)                    **
 **                                                                           **
 *******************************************************************************

 DFT| Spin restricted Kohn-Sham (RKS) calculation                            RKS
 DFT| Multiplicity                                                             1
 DFT| Number of spin states                                                    1
 DFT| Charge                                                                   0
 DFT| Self-interaction correction (SIC)                                       NO
 DFT| Cutoffs: density                                              1.000000E-10
 DFT|          gradient                                             1.000000E-10
 DFT|          tau                                                  1.000000E-10
 DFT|          cutoff_smoothing_range                               0.000000E+00
 DFT| XC density smoothing                                                  NONE
 DFT| XC derivatives                                                          PW

 FUNCTIONAL| PBE:
 FUNCTIONAL| J.P.Perdew, K.Burke, M.Ernzerhof, Phys. Rev. Letter, vol. 77, n 18,
 FUNCTIONAL|  pp. 3865-3868, (1996)sx=0.750sc=1.000{spin unpolarized}           


 QS| Method:                                                                GAPW
 QS| Density plane wave grid type                        NON-SPHERICAL FULLSPACE
 QS| Number of grid levels:                                                    4
 QS| Density cutoff [a.u.]:                                                250.0
 QS| Multi grid cutoff [a.u.]: 1) grid level                               250.0
 QS|                           2) grid level                                83.3
 QS|                           3) grid level                                27.8
 QS|                           4) grid level                                 9.3
 QS| Grid level progression factor:                                          3.0
 QS| Relative density cutoff [a.u.]:                                        50.0
 QS| Interaction thresholds: eps_pgf_orb:                                1.0E-12
 QS|                         eps_filter_matrix:                          0.0E+00
 QS|                         eps_core_charge:                            1.0E-14
 QS|                         eps_rho_gspace:                             1.0E-12
 QS|                         eps_rho_rspace:                             1.0E-12
 QS|                         eps_gvg_rspace:                             1.0E-06
 QS|                         eps_ppl:                                    1.0E-02
 QS|                         eps_ppnl:                                   1.0E-08
 QS| GAPW|      One center basis from orbital basis primitives
 QS| GAPW|                   eps_fit:                                    1.0E-04
 QS| GAPW|                   eps_iso:                                    1.0E-12
 QS| GAPW|                   eps_svd:                                    1.0E-08
 QS| GAPW|                   eps_cpc:                                    1.0E-12
 QS| GAPW|   atom-r-grid: quadrature:                                     GC_LOG
 QS| GAPW|      atom-s-grid:  max l :                                          8
 QS| GAPW|      max_l_rho0 :                                                   2


 ATOMIC KIND INFORMATION

  1. Atomic kind: B                                     Number of atoms:       1

     Orbital Basis Set                                        aug-TZVP-MOLOPT-ae

       Number of orbital shell sets:                                           2
       Number of orbital shells:                                              16
       Number of primitive Cartesian functions:                               14
       Number of Cartesian basis functions:                                   71
       Number of spherical basis functions:                                   56
       Norm type:                                                              2

       Normalised Cartesian orbitals:

                        Set   Shell   Orbital            Exponent    Coefficient

                          1       1    1s                0.037000       0.000000
                                                         0.055000       0.000000
                                                         0.081527       0.004479
                                                         0.231037       0.004596
                                                         0.627002      -0.034128
                                                         1.676500       0.393631
                                                         4.312240       1.325154
                                                        22.230570       0.835541

                          1       2    2s                0.037000       0.000000
                                                         0.055000       0.000000
                                                         0.081527       0.019156
                                                         0.231037       0.063291
                                                         0.627002       0.285761
                                                         1.676500       0.111410
                                                         4.312240      -0.066893
                                                        22.230570       0.380608

                          1       3    3s                0.037000       0.000000
                                                         0.055000       0.000000
                                                         0.081527       0.006030
                                                         0.231037       0.332555
                                                         0.627002      -0.285066
                                                         1.676500      -0.419641
                                                         4.312240       0.371542
                                                        22.230570      -1.681688

                          1       4    4s                0.037000       0.000000
                                                         0.055000       0.000000
                                                         0.081527       0.125733
                                                         0.231037      -0.011328
                                                         0.627002      -0.219216
                                                         1.676500       0.322739
                                                         4.312240      -0.760293
                                                        22.230570       1.905892

                          1       5    5s                0.037000       0.231931
                                                         0.055000      -0.273497
                                                         0.081527       0.006948
                                                         0.231037      -0.015074
                                                         0.627002       0.038509
                                                         1.676500       0.007320
                                                         4.312240       0.000000
                                                        22.230570       0.000000

                          1       6    2px               0.037000       0.000000
                                                         0.055000       0.000000
                                                         0.081527       0.001696
                                                         0.231037       0.008046
                                                         0.627002       0.466960
                                                         1.676500       0.900411
                                                         4.312240       1.390356
                                                        22.230570       4.654930
                          1       6    2py               0.037000       0.000000
                                                         0.055000       0.000000
                                                         0.081527       0.001696
                                                         0.231037       0.008046
                                                         0.627002       0.466960
                                                         1.676500       0.900411
                                                         4.312240       1.390356
                                                        22.230570       4.654930
                          1       6    2pz               0.037000       0.000000
                                                         0.055000       0.000000
                                                         0.081527       0.001696
                                                         0.231037       0.008046
                                                         0.627002       0.466960
                                                         1.676500       0.900411
                                                         4.312240       1.390356
                                                        22.230570       4.654930

                          1       7    3px               0.037000       0.000000
                                                         0.055000       0.000000
                                                         0.081527      -0.002807
                                                         0.231037       0.232786
                                                         0.627002       0.042448
                                                         1.676500      -0.296803
                                                         4.312240      -1.541502
                                                        22.230570      -2.619980
                          1       7    3py               0.037000       0.000000
                                                         0.055000       0.000000
                                                         0.081527      -0.002807
                                                         0.231037       0.232786
                                                         0.627002       0.042448
                                                         1.676500      -0.296803
                                                         4.312240      -1.541502
                                                        22.230570      -2.619980
                          1       7    3pz               0.037000       0.000000
                                                         0.055000       0.000000
                                                         0.081527      -0.002807
                                                         0.231037       0.232786
                                                         0.627002       0.042448
                                                         1.676500      -0.296803
                                                         4.312240      -1.541502
                                                        22.230570      -2.619980

                          1       8    4px               0.037000       0.000000
                                                         0.055000       0.000000
                                                         0.081527       0.060026
                                                         0.231037       0.011408
                                                         0.627002       0.008231
                                                         1.676500      -0.436837
                                                         4.312240       1.515783
                                                        22.230570      -8.036820
                          1       8    4py               0.037000       0.000000
                                                         0.055000       0.000000
                                                         0.081527       0.060026
                                                         0.231037       0.011408
                                                         0.627002       0.008231
                                                         1.676500      -0.436837
                                                         4.312240       1.515783
                                                        22.230570      -8.036820
                          1       8    4pz               0.037000       0.000000
                                                         0.055000       0.000000
                                                         0.081527       0.060026
                                                         0.231037       0.011408
                                                         0.627002       0.008231
                                                         1.676500      -0.436837
                                                         4.312240       1.515783
                                                        22.230570      -8.036820

                          1       9    5px               0.037000       0.000467
                                                         0.055000      -0.024055
                                                         0.081527      -0.022149
                                                         0.231037      -0.019624
                                                         0.627002       0.043495
                                                         1.676500       0.050078
                                                         4.312240       0.000000
                                                        22.230570       0.000000
                          1       9    5py               0.037000       0.000467
                                                         0.055000      -0.024055
                                                         0.081527      -0.022149
                                                         0.231037      -0.019624
                                                         0.627002       0.043495
                                                         1.676500       0.050078
                                                         4.312240       0.000000
                                                        22.230570       0.000000
                          1       9    5pz               0.037000       0.000467
                                                         0.055000      -0.024055
                                                         0.081527      -0.022149
                                                         0.231037      -0.019624
                                                         0.627002       0.043495
                                                         1.676500       0.050078
                                                         4.312240       0.000000
                                                        22.230570       0.000000

                          1      10    3dx2              0.037000       0.000000
                                                         0.055000       0.000000
                                                         0.081527       0.002153
                                                         0.231037       0.011346
                                                         0.627002       0.387577
                                                         1.676500       2.056214
                                                         4.312240      -1.635688
                                                        22.230570     -74.959133
                          1      10    3dxy              0.037000       0.000000
                                                         0.055000       0.000000
                                                         0.081527       0.003728
                                                         0.231037       0.019651
                                                         0.627002       0.671303
                                                         1.676500       3.561468
                                                         4.312240      -2.833095
                                                        22.230570    -129.833027
                          1      10    3dxz              0.037000       0.000000
                                                         0.055000       0.000000
                                                         0.081527       0.003728
                                                         0.231037       0.019651
                                                         0.627002       0.671303
                                                         1.676500       3.561468
                                                         4.312240      -2.833095
                                                        22.230570    -129.833027
                          1      10    3dy2              0.037000       0.000000
                                                         0.055000       0.000000
                                                         0.081527       0.002153
                                                         0.231037       0.011346
                                                         0.627002       0.387577
                                                         1.676500       2.056214
                                                         4.312240      -1.635688
                                                        22.230570     -74.959133
                          1      10    3dyz              0.037000       0.000000
                                                         0.055000       0.000000
                                                         0.081527       0.003728
                                                         0.231037       0.019651
                                                         0.627002       0.671303
                                                         1.676500       3.561468
                                                         4.312240      -2.833095
                                                        22.230570    -129.833027
                          1      10    3dz2              0.037000       0.000000
                                                         0.055000       0.000000
                                                         0.081527       0.002153
                                                         0.231037       0.011346
                                                         0.627002       0.387577
                                                         1.676500       2.056214
                                                         4.312240      -1.635688
                                                        22.230570     -74.959133

                          1      11    4dx2              0.037000       0.000000
                                                         0.055000       0.000000
                                                         0.081527      -0.002553
                                                         0.231037       0.105095
                                                         0.627002       0.288898
                                                         1.676500      -1.711794
                                                         4.312240       1.670808
                                                        22.230570     100.877982
                          1      11    4dxy              0.037000       0.000000
                                                         0.055000       0.000000
                                                         0.081527      -0.004422
                                                         0.231037       0.182030
                                                         0.627002       0.500386
                                                         1.676500      -2.964914
                                                         4.312240       2.893924
                                                        22.230570     174.725791
                          1      11    4dxz              0.037000       0.000000
                                                         0.055000       0.000000
                                                         0.081527      -0.004422
                                                         0.231037       0.182030
                                                         0.627002       0.500386
                                                         1.676500      -2.964914
                                                         4.312240       2.893924
                                                        22.230570     174.725791
                          1      11    4dy2              0.037000       0.000000
                                                         0.055000       0.000000
                                                         0.081527      -0.002553
                                                         0.231037       0.105095
                                                         0.627002       0.288898
                                                         1.676500      -1.711794
                                                         4.312240       1.670808
                                                        22.230570     100.877982
                          1      11    4dyz              0.037000       0.000000
                                                         0.055000       0.000000
                                                         0.081527      -0.004422
                                                         0.231037       0.182030
                                                         0.627002       0.500386
                                                         1.676500      -2.964914
                                                         4.312240       2.893924
                                                        22.230570     174.725791
                          1      11    4dz2              0.037000       0.000000
                                                         0.055000       0.000000
                                                         0.081527      -0.002553
                                                         0.231037       0.105095
                                                         0.627002       0.288898
                                                         1.676500      -1.711794
                                                         4.312240       1.670808
                                                        22.230570     100.877982

                          1      12    5dx2              0.037000       0.000836
                                                         0.055000       0.008173
                                                         0.081527       0.001542
                                                         0.231037      -0.005613
                                                         0.627002       0.001771
                                                         1.676500       0.009900
                                                         4.312240       0.000000
                                                        22.230570       0.000000
                          1      12    5dxy              0.037000       0.001448
                                                         0.055000       0.014155
                                                         0.081527       0.002671
                                                         0.231037      -0.009722
                                                         0.627002       0.003067
                                                         1.676500       0.017147
                                                         4.312240       0.000000
                                                        22.230570       0.000000
                          1      12    5dxz              0.037000       0.001448
                                                         0.055000       0.014155
                                                         0.081527       0.002671
                                                         0.231037      -0.009722
                                                         0.627002       0.003067
                                                         1.676500       0.017147
                                                         4.312240       0.000000
                                                        22.230570       0.000000
                          1      12    5dy2              0.037000       0.000836
                                                         0.055000       0.008173
                                                         0.081527       0.001542
                                                         0.231037      -0.005613
                                                         0.627002       0.001771
                                                         1.676500       0.009900
                                                         4.312240       0.000000
                                                        22.230570       0.000000
                          1      12    5dyz              0.037000       0.001448
                                                         0.055000       0.014155
                                                         0.081527       0.002671
                                                         0.231037      -0.009722
                                                         0.627002       0.003067
                                                         1.676500       0.017147
                                                         4.312240       0.000000
                                                        22.230570       0.000000
                          1      12    5dz2              0.037000       0.000836
                                                         0.055000       0.008173
                                                         0.081527       0.001542
                                                         0.231037      -0.005613
                                                         0.627002       0.001771
                                                         1.676500       0.009900
                                                         4.312240       0.000000
                                                        22.230570       0.000000

                          1      13    4fx3              0.037000       0.000000
                                                         0.055000       0.000000
                                                         0.081527      -0.000984
                                                         0.231037       0.018935
                                                         0.627002       0.373794
                                                         1.676500       0.585978
                                                         4.312240      -0.290033
                                                        22.230570      20.762424
                          1      13    4fx2y             0.037000       0.000000
                                                         0.055000       0.000000
                                                         0.081527      -0.002200
                                                         0.231037       0.042339
                                                         0.627002       0.835829
                                                         1.676500       1.310286
                                                         4.312240      -0.648533
                                                        22.230570      46.426192
                          1      13    4fx2z             0.037000       0.000000
                                                         0.055000       0.000000
                                                         0.081527      -0.002200
                                                         0.231037       0.042339
                                                         0.627002       0.835829
                                                         1.676500       1.310286
                                                         4.312240      -0.648533
                                                        22.230570      46.426192
                          1      13    4fxy2             0.037000       0.000000
                                                         0.055000       0.000000
                                                         0.081527      -0.002200
                                                         0.231037       0.042339
                                                         0.627002       0.835829
                                                         1.676500       1.310286
                                                         4.312240      -0.648533
                                                        22.230570      46.426192
                          1      13    4fxyz             0.037000       0.000000
                                                         0.055000       0.000000
                                                         0.081527      -0.003810
                                                         0.231037       0.073333
                                                         0.627002       1.447698
                                                         1.676500       2.269481
                                                         4.312240      -1.123293
                                                        22.230570      80.412523
                          1      13    4fxz2             0.037000       0.000000
                                                         0.055000       0.000000
                                                         0.081527      -0.002200
                                                         0.231037       0.042339
                                                         0.627002       0.835829
                                                         1.676500       1.310286
                                                         4.312240      -0.648533
                                                        22.230570      46.426192
                          1      13    4fy3              0.037000       0.000000
                                                         0.055000       0.000000
                                                         0.081527      -0.000984
                                                         0.231037       0.018935
                                                         0.627002       0.373794
                                                         1.676500       0.585978
                                                         4.312240      -0.290033
                                                        22.230570      20.762424
                          1      13    4fy2z             0.037000       0.000000
                                                         0.055000       0.000000
                                                         0.081527      -0.002200
                                                         0.231037       0.042339
                                                         0.627002       0.835829
                                                         1.676500       1.310286
                                                         4.312240      -0.648533
                                                        22.230570      46.426192
                          1      13    4fyz2             0.037000       0.000000
                                                         0.055000       0.000000
                                                         0.081527      -0.002200
                                                         0.231037       0.042339
                                                         0.627002       0.835829
                                                         1.676500       1.310286
                                                         4.312240      -0.648533
                                                        22.230570      46.426192
                          1      13    4fz3              0.037000       0.000000
                                                         0.055000       0.000000
                                                         0.081527      -0.000984
                                                         0.231037       0.018935
                                                         0.627002       0.373794
                                                         1.676500       0.585978
                                                         4.312240      -0.290033
                                                        22.230570      20.762424

                          1      14    5fx3              0.037000       0.000585
                                                         0.055000       0.000724
                                                         0.081527       0.000168
                                                         0.231037      -0.001009
                                                         0.627002       0.001060
                                                         1.676500       0.009690
                                                         4.312240       0.000000
                                                        22.230570       0.000000
                          1      14    5fx2y             0.037000       0.001309
                                                         0.055000       0.001618
                                                         0.081527       0.000375
                                                         0.231037      -0.002256
                                                         0.627002       0.002370
                                                         1.676500       0.021667
                                                         4.312240       0.000000
                                                        22.230570       0.000000
                          1      14    5fx2z             0.037000       0.001309
                                                         0.055000       0.001618
                                                         0.081527       0.000375
                                                         0.231037      -0.002256
                                                         0.627002       0.002370
                                                         1.676500       0.021667
                                                         4.312240       0.000000
                                                        22.230570       0.000000
                          1      14    5fxy2             0.037000       0.001309
                                                         0.055000       0.001618
                                                         0.081527       0.000375
                                                         0.231037      -0.002256
                                                         0.627002       0.002370
                                                         1.676500       0.021667
                                                         4.312240       0.000000
                                                        22.230570       0.000000
                          1      14    5fxyz             0.037000       0.002267
                                                         0.055000       0.002802
                                                         0.081527       0.000650
                                                         0.231037      -0.003908
                                                         0.627002       0.004105
                                                         1.676500       0.037529
                                                         4.312240       0.000000
                                                        22.230570       0.000000
                          1      14    5fxz2             0.037000       0.001309
                                                         0.055000       0.001618
                                                         0.081527       0.000375
                                                         0.231037      -0.002256
                                                         0.627002       0.002370
                                                         1.676500       0.021667
                                                         4.312240       0.000000
                                                        22.230570       0.000000
                          1      14    5fy3              0.037000       0.000585
                                                         0.055000       0.000724
                                                         0.081527       0.000168
                                                         0.231037      -0.001009
                                                         0.627002       0.001060
                                                         1.676500       0.009690
                                                         4.312240       0.000000
                                                        22.230570       0.000000
                          1      14    5fy2z             0.037000       0.001309
                                                         0.055000       0.001618
                                                         0.081527       0.000375
                                                         0.231037      -0.002256
                                                         0.627002       0.002370
                                                         1.676500       0.021667
                                                         4.312240       0.000000
                                                        22.230570       0.000000
                          1      14    5fyz2             0.037000       0.001309
                                                         0.055000       0.001618
                                                         0.081527       0.000375
                                                         0.231037      -0.002256
                                                         0.627002       0.002370
                                                         1.676500       0.021667
                                                         4.312240       0.000000
                                                        22.230570       0.000000
                          1      14    5fz3              0.037000       0.000585
                                                         0.055000       0.000724
                                                         0.081527       0.000168
                                                         0.231037      -0.001009
                                                         0.627002       0.001060
                                                         1.676500       0.009690
                                                         4.312240       0.000000
                                                        22.230570       0.000000

                          1      15    5gx4              0.037000       0.000024
                                                         0.055000       0.000028
                                                         0.081527       0.000892
                                                         0.231037       0.000285
                                                         0.627002       0.001746
                                                         1.676500       0.026101
                                                         4.312240       0.000000
                                                        22.230570       0.000000
                          1      15    5gx3y             0.037000       0.000063
                                                         0.055000       0.000074
                                                         0.081527       0.002360
                                                         0.231037       0.000753
                                                         0.627002       0.004619
                                                         1.676500       0.069058
                                                         4.312240       0.000000
                                                        22.230570       0.000000
                          1      15    5gx3z             0.037000       0.000063
                                                         0.055000       0.000074
                                                         0.081527       0.002360
                                                         0.231037       0.000753
                                                         0.627002       0.004619
                                                         1.676500       0.069058
                                                         4.312240       0.000000
                                                        22.230570       0.000000
                          1      15    5gx2y2            0.037000       0.000082
                                                         0.055000       0.000096
                                                         0.081527       0.003047
                                                         0.231037       0.000972
                                                         0.627002       0.005964
                                                         1.676500       0.089153
                                                         4.312240       0.000000
                                                        22.230570       0.000000
                          1      15    5gx2yz            0.037000       0.000141
                                                         0.055000       0.000165
                                                         0.081527       0.005277
                                                         0.231037       0.001684
                                                         0.627002       0.010329
                                                         1.676500       0.154418
                                                         4.312240       0.000000
                                                        22.230570       0.000000
                          1      15    5gx2z2            0.037000       0.000082
                                                         0.055000       0.000096
                                                         0.081527       0.003047
                                                         0.231037       0.000972
                                                         0.627002       0.005964
                                                         1.676500       0.089153
                                                         4.312240       0.000000
                                                        22.230570       0.000000
                          1      15    5gxy3             0.037000       0.000063
                                                         0.055000       0.000074
                                                         0.081527       0.002360
                                                         0.231037       0.000753
                                                         0.627002       0.004619
                                                         1.676500       0.069058
                                                         4.312240       0.000000
                                                        22.230570       0.000000
                          1      15    5gxy2z            0.037000       0.000141
                                                         0.055000       0.000165
                                                         0.081527       0.005277
                                                         0.231037       0.001684
                                                         0.627002       0.010329
                                                         1.676500       0.154418
                                                         4.312240       0.000000
                                                        22.230570       0.000000
                          1      15    5gxyz2            0.037000       0.000141
                                                         0.055000       0.000165
                                                         0.081527       0.005277
                                                         0.231037       0.001684
                                                         0.627002       0.010329
                                                         1.676500       0.154418
                                                         4.312240       0.000000
                                                        22.230570       0.000000
                          1      15    5gxz3             0.037000       0.000063
                                                         0.055000       0.000074
                                                         0.081527       0.002360
                                                         0.231037       0.000753
                                                         0.627002       0.004619
                                                         1.676500       0.069058
                                                         4.312240       0.000000
                                                        22.230570       0.000000
                          1      15    5gy4              0.037000       0.000024
                                                         0.055000       0.000028
                                                         0.081527       0.000892
                                                         0.231037       0.000285
                                                         0.627002       0.001746
                                                         1.676500       0.026101
                                                         4.312240       0.000000
                                                        22.230570       0.000000
                          1      15    5gy3z             0.037000       0.000063
                                                         0.055000       0.000074
                                                         0.081527       0.002360
                                                         0.231037       0.000753
                                                         0.627002       0.004619
                                                         1.676500       0.069058
                                                         4.312240       0.000000
                                                        22.230570       0.000000
                          1      15    5gy2z2            0.037000       0.000082
                                                         0.055000       0.000096
                                                         0.081527       0.003047
                                                         0.231037       0.000972
                                                         0.627002       0.005964
                                                         1.676500       0.089153
                                                         4.312240       0.000000
                                                        22.230570       0.000000
                          1      15    5gyz3             0.037000       0.000063
                                                         0.055000       0.000074
                                                         0.081527       0.002360
                                                         0.231037       0.000753
                                                         0.627002       0.004619
                                                         1.676500       0.069058
                                                         4.312240       0.000000
                                                        22.230570       0.000000
                          1      15    5gz4              0.037000       0.000024
                                                         0.055000       0.000028
                                                         0.081527       0.000892
                                                         0.231037       0.000285
                                                         0.627002       0.001746
                                                         1.676500       0.026101
                                                         4.312240       0.000000
                                                        22.230570       0.000000

                          2       1    1s             8564.805310       0.470718
                                                      1284.266148       1.037560
                                                       292.317852       1.564613
                                                        82.773089       2.737633
                                                        26.955680       2.121910
                                                         9.937437       2.701101

     RI Auxiliary Basis Set             RI_aug-TZVP-MOLOPT-ae_N_RI_043_s_p_d_f_g

       Number of orbital shell sets:                                          15
       Number of orbital shells:                                              15
       Number of primitive Cartesian functions:                               15
       Number of Cartesian basis functions:                                   49
       Number of spherical basis functions:                                   43
       Norm type:                                                              2

       Normalised Cartesian orbitals:

                        Set   Shell   Orbital            Exponent    Coefficient

                          1       1    7px               0.183885       0.171642
                          1       1    7py               0.183885       0.171642
                          1       1    7pz               0.183885       0.171642

                          2       1    1s                0.188062       0.203533

                          3       1   12dx2              0.253802       0.149375
                          3       1   12dxy              0.253802       0.258725
                          3       1   12dxz              0.253802       0.258725
                          3       1   12dy2              0.253802       0.149375
                          3       1   12dyz              0.253802       0.258725
                          3       1   12dz2              0.253802       0.149375

                          4       1    2s                0.312348       0.297776

                          5       1    8px               0.492458       0.588032
                          5       1    8py               0.492458       0.588032
                          5       1    8pz               0.492458       0.588032

                          6       1   13dx2              0.557654       0.592308
                          6       1   13dxy              0.557654       1.025908
                          6       1   13dxz              0.557654       1.025908
                          6       1   13dy2              0.557654       0.592308
                          6       1   13dyz              0.557654       1.025908
                          6       1   13dz2              0.557654       0.592308

                          7       1   15fx3              0.781389       0.845096
                          7       1   15fx2y             0.781389       1.889693
                          7       1   15fx2z             0.781389       1.889693
                          7       1   15fxy2             0.781389       1.889693
                          7       1   15fxyz             0.781389       3.273045
                          7       1   15fxz2             0.781389       1.889693
                          7       1   15fy3              0.781389       0.845096
                          7       1   15fy2z             0.781389       1.889693
                          7       1   15fyz2             0.781389       1.889693
                          7       1   15fz3              0.781389       0.845096

                          8       1    3s                0.975357       0.699492

                          9       1   14dx2              1.149111       2.099147
                          9       1   14dxy              1.149111       3.635830
                          9       1   14dxz              1.149111       3.635830
                          9       1   14dy2              1.149111       2.099147
                          9       1   14dyz              1.149111       3.635830
                          9       1   14dz2              1.149111       2.099147

                         10       1    9px               1.192376       1.776056
                         10       1    9py               1.192376       1.776056
                         10       1    9pz               1.192376       1.776056

                         11       1    4s                3.431731       1.796987

                         12       1   10px               3.944602       7.923994
                         12       1   10py               3.944602       7.923994
                         12       1   10pz               3.944602       7.923994

                         13       1   11px              12.228611      32.595790
                         13       1   11py              12.228611      32.595790
                         13       1   11pz              12.228611      32.595790

                         14       1    5s               12.764133       4.812864

                         15       1    6s               46.239591      12.637774

       Atomic covalent radius [Angstrom]:                                  0.820

       Atomic van der Waals radius [Angstrom]:                             1.920

     The atoms of this atomic kind are PAW atoms (GAPW):
       Hard Gaussian function radius:                                      1.512
       Rho0 radius:                                                        1.512
       Maximum GTO radius used for PAW projector construction:            24.566

     GAPW Soft Basis Set                                 aug-TZVP-MOLOPT-ae_soft

       Number of orbital shell sets:                                           2
       Number of orbital shells:                                              16
       Number of primitive Cartesian functions:                                7
       Number of Cartesian basis functions:                                   71
       Number of spherical basis functions:                                   56
       Norm type:                                                              2

       Normalised Cartesian orbitals:

                        Set   Shell   Orbital            Exponent    Coefficient

                          1       1    1s                0.037000       0.000000
                                                         0.055000       0.000000
                                                         0.081527       0.004479
                                                         0.231037       0.004596
                                                         0.627002      -0.034128
                                                         1.676500       0.393631
                                                         4.312240       0.000000

                          1       2    2s                0.037000       0.000000
                                                         0.055000       0.000000
                                                         0.081527       0.019156
                                                         0.231037       0.063291
                                                         0.627002       0.285761
                                                         1.676500       0.111410
                                                         4.312240       0.000000

                          1       3    3s                0.037000       0.000000
                                                         0.055000       0.000000
                                                         0.081527       0.006030
                                                         0.231037       0.332555
                                                         0.627002      -0.285066
                                                         1.676500      -0.419641
                                                         4.312240       0.000000

                          1       4    4s                0.037000       0.000000
                                                         0.055000       0.000000
                                                         0.081527       0.125733
                                                         0.231037      -0.011328
                                                         0.627002      -0.219216
                                                         1.676500       0.322739
                                                         4.312240       0.000000

                          1       5    5s                0.037000       0.231931
                                                         0.055000      -0.273497
                                                         0.081527       0.006948
                                                         0.231037      -0.015074
                                                         0.627002       0.038509
                                                         1.676500       0.007320
                                                         4.312240       0.000000

                          1       6    2px               0.037000       0.000000
                                                         0.055000       0.000000
                                                         0.081527       0.001696
                                                         0.231037       0.008046
                                                         0.627002       0.466960
                                                         1.676500       0.900411
                                                         4.312240       0.000000
                          1       6    2py               0.037000       0.000000
                                                         0.055000       0.000000
                                                         0.081527       0.001696
                                                         0.231037       0.008046
                                                         0.627002       0.466960
                                                         1.676500       0.900411
                                                         4.312240       0.000000
                          1       6    2pz               0.037000       0.000000
                                                         0.055000       0.000000
                                                         0.081527       0.001696
                                                         0.231037       0.008046
                                                         0.627002       0.466960
                                                         1.676500       0.900411
                                                         4.312240       0.000000

                          1       7    3px               0.037000       0.000000
                                                         0.055000       0.000000
                                                         0.081527      -0.002807
                                                         0.231037       0.232786
                                                         0.627002       0.042448
                                                         1.676500      -0.296803
                                                         4.312240       0.000000
                          1       7    3py               0.037000       0.000000
                                                         0.055000       0.000000
                                                         0.081527      -0.002807
                                                         0.231037       0.232786
                                                         0.627002       0.042448
                                                         1.676500      -0.296803
                                                         4.312240       0.000000
                          1       7    3pz               0.037000       0.000000
                                                         0.055000       0.000000
                                                         0.081527      -0.002807
                                                         0.231037       0.232786
                                                         0.627002       0.042448
                                                         1.676500      -0.296803
                                                         4.312240       0.000000

                          1       8    4px               0.037000       0.000000
                                                         0.055000       0.000000
                                                         0.081527       0.060026
                                                         0.231037       0.011408
                                                         0.627002       0.008231
                                                         1.676500      -0.436837
                                                         4.312240       0.000000
                          1       8    4py               0.037000       0.000000
                                                         0.055000       0.000000
                                                         0.081527       0.060026
                                                         0.231037       0.011408
                                                         0.627002       0.008231
                                                         1.676500      -0.436837
                                                         4.312240       0.000000
                          1       8    4pz               0.037000       0.000000
                                                         0.055000       0.000000
                                                         0.081527       0.060026
                                                         0.231037       0.011408
                                                         0.627002       0.008231
                                                         1.676500      -0.436837
                                                         4.312240       0.000000

                          1       9    5px               0.037000       0.000467
                                                         0.055000      -0.024055
                                                         0.081527      -0.022149
                                                         0.231037      -0.019624
                                                         0.627002       0.043495
                                                         1.676500       0.050078
                                                         4.312240       0.000000
                          1       9    5py               0.037000       0.000467
                                                         0.055000      -0.024055
                                                         0.081527      -0.022149
                                                         0.231037      -0.019624
                                                         0.627002       0.043495
                                                         1.676500       0.050078
                                                         4.312240       0.000000
                          1       9    5pz               0.037000       0.000467
                                                         0.055000      -0.024055
                                                         0.081527      -0.022149
                                                         0.231037      -0.019624
                                                         0.627002       0.043495
                                                         1.676500       0.050078
                                                         4.312240       0.000000

                          1      10    3dx2              0.037000       0.000000
                                                         0.055000       0.000000
                                                         0.081527       0.002153
                                                         0.231037       0.011346
                                                         0.627002       0.387577
                                                         1.676500       2.056214
                                                         4.312240      -1.635688
                          1      10    3dxy              0.037000       0.000000
                                                         0.055000       0.000000
                                                         0.081527       0.003728
                                                         0.231037       0.019651
                                                         0.627002       0.671303
                                                         1.676500       3.561468
                                                         4.312240      -2.833095
                          1      10    3dxz              0.037000       0.000000
                                                         0.055000       0.000000
                                                         0.081527       0.003728
                                                         0.231037       0.019651
                                                         0.627002       0.671303
                                                         1.676500       3.561468
                                                         4.312240      -2.833095
                          1      10    3dy2              0.037000       0.000000
                                                         0.055000       0.000000
                                                         0.081527       0.002153
                                                         0.231037       0.011346
                                                         0.627002       0.387577
                                                         1.676500       2.056214
                                                         4.312240      -1.635688
                          1      10    3dyz              0.037000       0.000000
                                                         0.055000       0.000000
                                                         0.081527       0.003728
                                                         0.231037       0.019651
[...]
 2     collocate general  CPU                                   2832      15.21%
 2     integrate general  CPU                                   2832      15.21%
 6     collocate ortho    CPU                                   2065      11.09%
 6     integrate ortho    CPU                                   2065      11.09%
 4     collocate ortho    CPU                                   1475       7.92%
 4     integrate ortho    CPU                                   1475       7.92%
 0     collocate general  CPU                                     48       0.26%
 0     integrate general  CPU                                     48       0.26%
 -------------------------------------------------------------------------------

 MEMORY| Estimated peak process memory [MiB]                                3537

 -------------------------------------------------------------------------------
 ----                             MULTIGRID INFO                            ----
 -------------------------------------------------------------------------------
 count for grid        1:        1968794          cutoff [a.u.]          250.00
 count for grid        2:         433271          cutoff [a.u.]           83.33
 count for grid        3:         340817          cutoff [a.u.]           27.78
 count for grid        4:         387187          cutoff [a.u.]            9.26
 total gridlevel count  :        3130069

 -------------------------------------------------------------------------------
 -                                                                             -
 -                         MESSAGE PASSING PERFORMANCE                         -
 -                                                                             -
 -------------------------------------------------------------------------------

 ROUTINE             CALLS      AVE VOLUME [Bytes]
 MP_Group              260
 MP_Bcast              789                 542860.
 MP_Allreduce         6172                  20016.
 MP_Sync               717
 MP_Alltoall          1636              109182385.
 MP_SendRecv          2763                 530252.
 MP_ISendRecv         5474                 287312.
 MP_Wait             16601
 MP_comm_split         110
 MP_ISend            10831                2145336.
 MP_IRecv            10822                2147119.
 -------------------------------------------------------------------------------


 -------------------------------------------------------------------------------
 -                                                                             -
 -                           R E F E R E N C E S                               -
 -                                                                             -
 -------------------------------------------------------------------------------
 
 CP2K version 2025.1 (Development Version), the CP2K developers group (2025).
 CP2K is freely available from https://www.cp2k.org/ .
 
 T. D. Kuehne, M. Iannuzzi, M. Del Ben, V. V. Rybkin, P. Seewald, F. Stein, T. 
 Laino, R. Z. Khaliullin, O. Schuett, F. Schiffmann, D. Golze, J. Wilhelm, S. 
 Chulkov, M. H. Bani-Hashemian, V. Weber, U. Borstnik, M. Taillefumier, A. S. 
 Jakobovits, A. Lazzaro, H. Pabst, T. Mueller, R. Schade, M. Guidon, S. 
 Andermatt, N. Holmberg, G. K. Schenter, A. Hehn, A. Bussy, F. Belleflamme, G. 
 Tabacchi, A. Gloess, M. Lass, I. Bethune, C. J. Mundy, C. Plessl, M. Watkins, 
 J. VandeVondele, M. Krack, J. Hutter.
 J. Chem. Phys. 152, 194103 (2020).
 CP2K: An electronic structure and molecular dynamics software package - 
 Quickstep: Efficient and accurate electronic structure calculations.
 https://doi.org/10.1063/5.0007045

 J. Wilhelm, D. Golze, L. Talirz, J. Hutter, C. A. Pignedoli.
 J. Phys. Chem. Lett. 9, 306-312 (2018).
 Toward GW calculations on thousands of atoms.
 https://doi.org/10.1021/acs.jpclett.7b02740

 J. Wilhelm, J. Hutter.
 Phys. Rev. B 95, 235123 (2017).
 Periodic GW calculations in the Gaussian and plane-waves scheme.
 https://doi.org/10.1103/PhysRevB.95.235123

 O. Schuett, P. Messmer, J. Hutter, J. VandeVondele.
 Electronic Structure Calculations on Graphics Processing Units, 173-190 (2016).
 GPU-Accelerated Sparse Matrix-Matrix Multiplication for Linear Scaling Density 
 Functional Theory.
 https://doi.org/10.1002/9781118670712.ch8

 J. Wilhelm, M. Del Ben, J. Hutter.
 J. Chem. Theory Comput. 12, 3623-3635 (2016).
 GW in the Gaussian and plane waves scheme with application to linear acenes.
 https://doi.org/10.1021/acs.jctc.6b00380

 M. Del Ben, O. Schuett, T. Wentz, P. Messmer, J. Hutter, J. VandeVondele.
 Comput. Phys. Commun. 187, 120-129 (2015).
 Enabling simulation at the fifth rung of DFT: Large scale RPA calculations with 
 excellent time to solution.
 https://doi.org/10.1016/j.cpc.2014.10.021

 J. Hutter, M. Iannuzzi, F. Schiffmann, J. VandeVondele.
 WIREs Comput Mol Sci. 4, 15-25 (2014).
 CP2K: atomistic simulations of condensed matter systems.
 https://doi.org/10.1002/wcms.1159

 U. Borstnik, J. VandeVondele, V. Weber, J. Hutter.
 Parallel Comput. 40, 47-58 (2014).
 Sparse matrix multiplication: The distributed block-compressed sparse row 
 library.
 https://doi.org/10.1016/j.parco.2014.03.012

 M. Del Ben, J. Hutter, J. VandeVondele.
 J. Chem. Theory Comput. 9, 2654-2671 (2013).
 Electron Correlation in the Condensed Phase from a Resolution of Identity 
 Approach Based on the Gaussian and Plane Waves Scheme.
 https://doi.org/10.1021/ct4002202

 M. Del Ben, J. Hutter, J. VandeVondele.
 J. Chem. Theory Comput. 8, 4177-4188 (2012).
 Second-Order Moller-Plesset Perturbation Theory in the Condensed Phase: An 
 Efficient and Massively Parallel Gaussian and Plane Waves Approach.
 https://doi.org/10.1021/ct300531w

 M. Guidon, J. Hutter, J. VandeVondele.
 J. Chem. Theory Comput. 5, 3010-3021 (2009).
 Robust Periodic Hartree-Fock Exchange for Large-Scale Simulations Using 
 Gaussian Basis Sets.
 https://doi.org/10.1021/ct900494g

 M. Guidon, F. Schiffmann, J. Hutter, J. VandeVondele.
 J. Chem. Phys. 128, 214104 (2008).
 Ab initio molecular dynamics using hybrid density functionals.
 https://doi.org/10.1063/1.2931945

 L. Genovese, T. Deutsch, S. Goedecker.
 J. Chem. Phys. 127, 054704 (2007).
 Efficient and accurate three-dimensional Poisson solver for surface problems.
 https://doi.org/10.1063/1.2754685

 J. VandeVondele, J. Hutter.
 J. Chem. Phys. 127, 114105 (2007).
 Gaussian basis sets for accurate calculations on molecular systems in gas and 
 condensed phases.
 https://doi.org/10.1063/1.2770708

 L. Genovese, T. Deutsch, A. Neelov, S. Goedecker, G. Beylkin.
 J. Chem. Phys. 125, 074105 (2006).
 Efficient solution of Poisson's equation with free boundary conditions.
 https://doi.org/10.1063/1.2335442

 M. Frigo, S. G. Johnson.
 Proc. IEEE 93, 216-231 (2005).
 The design and implementation of FFTW3.
 https://doi.org/10.1109/JPROC.2004.840301

 M. Krack, M. Parrinello.
 Phys. Chem. Chem. Phys. 2, 2105-2112 (2000).
 All-electron ab-initio molecular dynamics.
 https://doi.org/10.1039/b001167n

 G. Lippert, J. Hutter, M. Parrinello.
 Theor. Chem. Acc. 103, 124-140 (1999).
 The Gaussian and augmented-plane-wave density functional method for ab initio 
 molecular dynamics simulations.
 https://doi.org/10.1007/s002140050523

 J. P. Perdew, K. Burke, M. Ernzerhof.
 Phys. Rev. Lett. 77, 3865-3868 (1996).
 Generalized gradient approximation made simple.
 https://doi.org/10.1103/PhysRevLett.77.3865


 -------------------------------------------------------------------------------
 -                                                                             -
 -                                T I M I N G                                  -
 -                                                                             -
 -------------------------------------------------------------------------------
 SUBROUTINE                       CALLS  ASD         SELF TIME        TOTAL TIME
                                MAXIMUM       AVERAGE  MAXIMUM  AVERAGE  MAXIMUM
 CP2K                                 1  1.0    0.049    0.076 1244.892 1244.893
 qs_energies                          1  2.0    0.001    0.001 1243.539 1243.781
 scf_env_do_scf                       1  3.0    0.000    0.000 1237.624 1237.624
 scf_env_do_scf_inner_loop           58  4.0    0.002    0.004 1237.623 1237.624
 qs_ks_build_kohn_sham_matrix        59  7.0    0.009    0.010 1162.587 1162.634
 qs_ks_update_qs_env                 58  5.0    0.000    0.000 1159.786 1159.830
 rebuild_ks_matrix                   58  6.0    0.000    0.000 1159.782 1159.827
 hfx_ks_matrix                       59  8.0    0.003    0.003  901.196  901.248
 integrate_four_center               59  9.0    3.574    5.013  901.192  901.243
 integrate_four_center_main          59 10.0   33.504  786.932   35.552  836.004
 mp_sync                            717  9.4  799.535  835.964  799.535  835.964
 fft_wrap_pw1pw2                   1230  9.9    0.029    0.037  139.740  140.754
 fft_wrap_pw1pw2_250                876 11.1    6.190    6.957  135.549  136.744
 fft3d_ps                          1230 11.9   60.004   61.898  109.705  111.108
 pw_poisson_solve                    59  8.0    2.564    2.619   94.599   94.630
 qs_vxc_create                       59  8.0    0.001    0.001   83.949   83.949
 xc_vxc_pw_create                    58  9.0    1.479    1.584   83.948   83.948
 xc_pw_derive                       348 11.0    0.005    0.005   61.233   62.795
 ps_wavelet_solve                    59  9.0   53.358   56.540   62.382   62.531
 calc_screening_functions             1 10.0   58.416   61.827   58.633   62.042
 integrate_four_center_bin         4602 11.0    2.048   49.072    2.048   49.072
 mp_alltoall_d54                     59 10.0    5.467   49.019    5.467   49.019
 xc_rho_set_and_dset_create          58 10.0    1.145    1.412   41.242   42.794
 xc_pw_divergence                    58 10.0    0.003    0.003   40.562   41.900
 gspace_mixing                       57  5.0    1.113    1.124   41.622   41.622
 mp_alltoall_z22v                  1230 13.9   30.550   39.469   30.550   39.469
 qs_rho_update_rho_low               59  5.0    0.001    0.001   36.391   36.391
 calculate_rho_elec                  59  6.0    1.153    1.164   36.222   36.222
 prepare_gapw_den                    59  8.0    0.001    0.001   32.532   32.730
 broyden_mixing                      57  6.0   31.146   31.716   31.843   32.184
 x_to_yz                            643 13.1   13.028   13.342   27.801   28.416
 yz_to_x                            587 12.8    6.105    7.339   21.883   27.446
 density_rs2pw                       59  7.0    0.004    0.004   26.574   26.952
 sum_up_and_integrate                59  8.0    0.001    0.001   20.576   20.625
 integrate_v_rspace                  59  9.0    0.001    0.002   20.242   20.377
 potential_pw2rs                     59 10.0    0.053    0.061   18.713   18.843
 calculate_rho_atom                 118  9.0    1.358   17.137    1.358   17.137
 mp_sum_dv                         2488 10.8   15.980   16.807   15.980   16.807
 mp_sum_d                          1724  6.1   14.349   16.144   14.349   16.144
 put_rho0_on_grid                    59  9.0    1.155    1.168   15.113   15.311
 transfer_pw2rs                     296 10.6    0.005    0.006   11.650   11.941
 calculate_vxc_atom                  59  8.0    0.030    0.346   11.790   11.790
 gaVxcgb_GC                         116  9.0    0.473   11.361    0.473   11.361
 pw_scatter_p                       643 12.1   10.162   10.371   10.162   10.371
 transfer_rs2pw                     296  8.4    0.008    0.011    9.820   10.288
 xc_functional_eval                 290 10.9    0.001    0.002    8.004    9.185
 pbe_lda_eval                       290 11.9    8.003    9.185    8.003    9.185
 transfer_pw2rs_250                 119 10.9    3.274    3.409    8.775    9.162
 pw_gather_p                        587 11.8    8.418    9.057    8.418    9.057
 mp_waitany                        9968 11.5    8.307    8.961    8.307    8.961
 grid_collocate_task_list            59  7.0    8.306    8.910    8.306    8.910
 transfer_rs2pw_250                 119 10.0    3.233    3.608    7.454    7.928
 pw_derive                          525 11.3    6.994    7.332    6.994    7.332
 integrate_vhg0_rspace               59  8.0    0.118    0.172    5.925    5.937
 mp2_main                             1  3.0    0.000    0.000    4.610    4.852
 mp_sum_l                           855  5.8    3.439    4.732    3.439    4.732
 integrate_four_center_load          59 10.0    0.000    0.001    3.411    4.700
 hfx_load_balance                     1 11.0    0.000    0.000    3.411    4.700
 hfx_load_balance_range               1 12.0    0.000    0.000    3.409    4.698
 mp_alltoall_d11v                  1088  9.4    3.627    4.597    3.627    4.597
 fft_wrap_pw1pw2_90                 118 10.5    0.180    0.265    3.457    4.074
 mp_alltoall_d45                     60 10.0    2.955    3.986    2.955    3.986
 pw_copy                            880 10.6    3.705    3.931    3.705    3.931
 cp2k_distribution_to_z_slices       59  9.0    2.226    2.476    3.552    3.619
 pw_poisson_set                      60  8.9    0.002    0.002    3.488    3.520
 pw_copy_to_array                   587 11.8    3.127    3.484    3.127    3.484
 rs_grid_zero                       297 11.1    2.861    2.934    2.861    2.934
 compute_vec_Sigma_x_minus_vxc_       1  4.0    0.000    0.000    2.810    2.810
 pw_axpy                            585  9.3    2.542    2.809    2.542    2.809
 pw_copy_from_array                 643 12.1    1.894    2.167    1.894    2.167
 Vh_1c_gg_integrals                  59  8.0    0.067    1.453    1.596    2.160
 pw_integral_ab_c1d_c1d_gs           59  9.0    1.755    1.948    2.027    2.136
 pw_poisson_rebuild                  59  9.0    0.000    0.000    1.833    1.862
 ps_wavelet_create                    1 10.0    0.000    0.000    1.833    1.862
 RS_z_slice_distribution              1 11.0    1.670    1.735    1.833    1.862
 transfer_pw2rs_90                   59 12.0    0.476    0.524    1.462    1.620
 mp2_gpw_main                         1  4.0    0.000    0.000    1.608    1.618
 rs_gather_matrices                  59 10.0    0.005    0.007    1.322    1.528
 grid_integrate_task_list            59 10.0    0.206    1.511    0.206    1.511
 mp_waitall_1                     10670 12.1    0.863    1.405    0.863    1.405
 rpa_ri_compute_en                    1  5.0    0.000    0.001    1.384    1.384
 rpa_num_int                          1  6.0    0.001    0.001    1.379    1.379
 transfer_rs2pw_90                   59  9.0    0.389    0.432    1.158    1.279
 mp_sum_dm                          417  7.6    0.967    1.265    0.967    1.265
 pw_zero                            350 10.3    1.189    1.254    1.189    1.254
 compute_GW_self_energy             100  7.0    0.001    0.001    1.193    1.222
 compute_GW_self_energy_deep        100  8.0    1.028    1.058    1.161    1.190
 transfer_pw2rs_30                   59 12.0    0.655    0.698    1.083    1.178
 init_scf_run                         1  3.0    0.000    0.000    1.018    1.019
 scf_env_initial_rho_setup            1  4.0    0.000    0.000    1.016    1.017
 transfer_rs2pw_30                   59  9.0    0.504    0.536    0.964    0.982
 qs_init_subsys                       1  2.0    0.007    0.011    0.898    0.899
 mp_irecv_dm3                      1424 11.5    0.432    0.882    0.432    0.882
 qs_env_setup                         1  3.0    0.000    0.000    0.867    0.873
 qs_env_rebuild_pw_env                2  3.5    0.000    0.000    0.866    0.872
 pw_env_rebuild                       1  5.0    0.001    0.001    0.866    0.872
 pw_grid_setup                        4  6.0    0.000    0.000    0.843    0.849
 pw_grid_setup_internal               4  7.0    0.019    0.022    0.843    0.848
 scale_and_distribute               118 10.0    0.765    0.800    0.765    0.800
 mp_isend_dv                      10336 11.7    0.615    0.773    0.615    0.773
 mp_isend_dm3                      1424 11.5    0.326    0.742    0.326    0.742
 pw_grid_sort                         4  8.0    0.472    0.474    0.667    0.673
 mp_sendrecv_dv                    2714 10.0    0.603    0.645    0.603    0.645
 fft_wrap_pw1pw2_30                 118 10.5    0.029    0.034    0.573    0.601
 qs_scf_new_mos                      58  5.0    0.001    0.001    0.512    0.516
 calc_pair_dist_radii                 1 10.0    0.296    0.299    0.433    0.438
 mp_sum_i                            17  9.9    0.243    0.417    0.243    0.417
 restraint_control                    1  2.0    0.000    0.000    0.242    0.416
 mp2_main_alloc_hfx                   1  4.0    0.174    0.416    0.174    0.416
 pw_scale                           233  9.5    0.338    0.408    0.338    0.408
 integrate_four_center_getP          59 10.0    0.003    0.004    0.236    0.389
 mp_max_i                           572  2.7    0.292    0.374    0.292    0.374
 transfer_pw2rs_10                   59 12.0    0.141    0.152    0.326    0.368
 powell_optimize                 141702 11.0    0.355    0.361    0.355    0.361
 mp_isendrecv_dv                   5428 12.0    0.163    0.353    0.163    0.353
 mixing_init                          1  5.0    0.289    0.299    0.298    0.299
 cp_fm_syevd                         62  7.0    0.000    0.001    0.296    0.297
 eigensolver                         59  6.0    0.003    0.004    0.291    0.292
 calculate_rho0_atom                118  9.0    0.233    0.277    0.233    0.277
 cp_fm_redistribute_end              62  8.0    0.141    0.261    0.142    0.262
 transfer_rs2pw_10                   59  9.0    0.094    0.096    0.237    0.250
 cp_fm_syevd_base                    62  8.0    0.119    0.239    0.119    0.239
 mp_irecv_dv                      10296 11.7    0.095    0.221    0.095    0.221
 mp2_ri_gpw_compute_in                1  5.0    0.000    0.000    0.207    0.207
 mp2_ri_gpw_compute_in_loop           1  6.0    0.000    0.000    0.204    0.204
 xc_pw_smooth                        58 10.0    0.000    0.000    0.159    0.202
 sort_shells                          4  9.0    0.196    0.199    0.196    0.199
 scf_post_calculation_gpw             1  3.0    0.000    0.000    0.177    0.177
 write_available_results              1  4.0    0.000    0.000    0.177    0.177
 write_mo_free_results                1  5.0    0.026    0.027    0.177    0.177
 contract_B_L                         4  7.0    0.001    0.001    0.137    0.174
 calculate_rho_atom_coeff            59  6.0    0.033    0.080    0.169    0.169
 parallel_gemm_fm                   217  9.5    0.000    0.000    0.154    0.161
 parallel_gemm_fm_gemm              217 10.5    0.000    0.000    0.153    0.161
 cp_fm_gemm                         217 11.5    0.153    0.160    0.153    0.160
 fft_wrap_pw1pw2_10                 118 10.5    0.006    0.008    0.132    0.146
 calculate_dm_sparse                 58  6.0    0.000    0.000    0.135    0.140
 cp_dbcsr_plus_fm_fm_t               58  7.0    0.001    0.001    0.135    0.139
 mp_cart_create                     343 10.5    0.089    0.126    0.089    0.127
 -------------------------------------------------------------------------------

 The number of warnings for this run is : 1
 
 -------------------------------------------------------------------------------
  **** **** ******  **  PROGRAM ENDED AT                 2025-03-03 08:25:46.280
 ***** ** ***  *** **   PROGRAM RAN ON                              i01r06c02s10
 **    ****   ******    PROGRAM RAN BY                                   di38fab
 ***** **    ** ** **   PROGRAM PROCESS ID                                353992
  **** **  *******  **  PROGRAM STOPPED IN /hppfs/scratch/04/di38fab/05_MOL/W4-1
                                           1+ALK/bh/TZVP
