 DBCSR| CPU Multiplication driver                                           BLAS (U)
 DBCSR| Multrec recursion limit                                              512 (U)
 DBCSR| Multiplication stack size                                           1000 (D)
 DBCSR| Maximum elements for images                                    UNLIMITED (U)
 DBCSR| Multiplicative factor virtual images                                   1 (U)
 DBCSR| Use multiplication densification                                       T (D)
 DBCSR| Multiplication size stacks                                             3 (U)
 DBCSR| Use memory pool for CPU allocation                                     F (U)
 DBCSR| Number of 3D layers                                               SINGLE (U)
 DBCSR| Use MPI memory allocation                                              F (U)
 DBCSR| Use RMA algorithm                                                      F (U)
 DBCSR| Use Communication thread                                               T (U)
 DBCSR| Communication thread load                                             75 (D)
 DBCSR| MPI: My process id                                                     0
 DBCSR| MPI: Number of processes                                              24
 DBCSR| OMP: Current number of threads                                         4
 DBCSR| OMP: Max number of threads                                             4
 DBCSR| Split modifier for TAS multiplication algorithm                  1.0E+00 (U)


  **** **** ******  **  PROGRAM STARTED AT               2025-03-11 06:38:51.162
 ***** ** ***  *** **   PROGRAM STARTED ON                          i03r08c04s11
 **    ****   ******    PROGRAM STARTED BY                               di38fab
 ***** **    ** ** **   PROGRAM PROCESS ID                               4018658
  **** **  *******  **  PROGRAM STARTED IN /hppfs/scratch/04/di38fab/05_MOL/W4-1
                                           1+ALK/bn3pi/aug-cc-pV5Z

 CP2K| version string:                 CP2K version 2025.1 (Development Version)
 CP2K| source code revision number:                                  git:d2e611a
 CP2K| cp2kflags: omp libint fftw3 libxc parallel scalapack max_contr=4         
 CP2K| is freely available from                            https://www.cp2k.org/
 CP2K| Program compiled at                       Thu 06 Mar 2025 05:09:20 PM CET
 CP2K| Program compiled on                                               login02
 CP2K| Program compiled for                                        Supermuc-foss
 CP2K| Data directory path                  /hppfs/work/pn36zo/di38fab/cp2k/data
 CP2K| Input file name                                                    GW.inp

 GLOBAL| Force Environment number                                              1
 GLOBAL| Basis set file name            /hppfs/scratch/04/di38fab/04_TMD/BASIS_A
 GLOBAL| Potential file name            /hppfs/work/pn36zo/di38fab/cp2k/data/ALL
 GLOBAL| MM Potential file name                                     MM_POTENTIAL
 GLOBAL| Coordinate file name                                      __STD_INPUT__
 GLOBAL| Method name                                                        CP2K
 GLOBAL| Project name                                                       MoS2
 GLOBAL| Run type                                                         ENERGY
 GLOBAL| FFT library                                                       FFTW3
 GLOBAL| Diagonalization library                                       ScaLAPACK
 GLOBAL| DGEMM library                                                      BLAS
 GLOBAL| Orthonormality check for eigenvectors                          DISABLED
 GLOBAL| Matrix multiplication library                                 ScaLAPACK
 GLOBAL| All-to-all communication in single precision                          F
 GLOBAL| FFTs using library dependent lengths                                  F
 GLOBAL| Grid backend                                                       AUTO
 GLOBAL| Global print level                                               MEDIUM
 GLOBAL| MPI I/O enabled                                                       T
 GLOBAL| Total number of message passing processes                            24
 GLOBAL| Number of threads for this process                                    4
 GLOBAL| This output is from process                                           0
 GLOBAL| OpenMP stack size per thread (OMP_STACKSIZE)                    default
 GLOBAL| CPU model name             Intel(R) Xeon(R) Platinum 8174 CPU @ 3.10GHz

 MEMORY| system memory details [Kb]
 MEMORY|                        rank 0           min           max       average
 MEMORY| MemTotal             98436664      98436664      98436664      98436664
 MEMORY| MemFree              84120648      83946040      84120648      84033344
 MEMORY| Buffers                     0             0             0             0
 MEMORY| Cached                2394932       2394932       2437388       2416160
 MEMORY| Slab                  1226680       1226680       1240548       1233614
 MEMORY| SReclaimable           269720        264624        269720        267172
 MEMORY| MemLikelyFree        86785300      86648052      86785300      86716676


 *** Fundamental physical constants (SI units) ***

 *** Literature: B. J. Mohr and B. N. Taylor,
 ***             CODATA recommended values of the fundamental physical
 ***             constants: 2006, Web Version 5.1
 ***             http://physics.nist.gov/constants

 Speed of light in vacuum [m/s]                             2.99792458000000E+08
 Magnetic constant or permeability of vacuum [N/A**2]       1.25663706143592E-06
 Electric constant or permittivity of vacuum [F/m]          8.85418781762039E-12
 Planck constant (h) [J*s]                                  6.62606896000000E-34
 Planck constant (h-bar) [J*s]                              1.05457162825177E-34
 Elementary charge [C]                                      1.60217648700000E-19
 Electron mass [kg]                                         9.10938215000000E-31
 Electron g factor [ ]                                     -2.00231930436220E+00
 Proton mass [kg]                                           1.67262163700000E-27
 Fine-structure constant                                    7.29735253760000E-03
 Rydberg constant [1/m]                                     1.09737315685270E+07
 Avogadro constant [1/mol]                                  6.02214179000000E+23
 Boltzmann constant [J/K]                                   1.38065040000000E-23
 Atomic mass unit [kg]                                      1.66053878200000E-27
 Bohr radius [m]                                            5.29177208590000E-11

 *** Conversion factors ***

 [u] -> [a.u.]                                              1.82288848426455E+03
 [Angstrom] -> [Bohr] = [a.u.]                              1.88972613288564E+00
 [a.u.] = [Bohr] -> [Angstrom]                              5.29177208590000E-01
 [a.u.] -> [s]                                              2.41888432650478E-17
 [a.u.] -> [fs]                                             2.41888432650478E-02
 [a.u.] -> [J]                                              4.35974393937059E-18
 [a.u.] -> [N]                                              8.23872205491840E-08
 [a.u.] -> [K]                                              3.15774647902944E+05
 [a.u.] -> [kJ/mol]                                         2.62549961709828E+03
 [a.u.] -> [kcal/mol]                                       6.27509468713739E+02
 [a.u.] -> [Pa]                                             2.94210107994716E+13
 [a.u.] -> [bar]                                            2.94210107994716E+08
 [a.u.] -> [atm]                                            2.90362800883016E+08
 [a.u.] -> [eV]                                             2.72113838565563E+01
 [a.u.] -> [Hz]                                             6.57968392072181E+15
 [a.u.] -> [1/cm] (wave numbers)                            2.19474631370540E+05
 [a.u./Bohr**2] -> [1/cm]                                   5.14048714338585E+03
 

 CELL_TOP| Volume [angstrom^3]:                                     27000.000000
 CELL_TOP| Vector a [angstrom    30.000     0.000     0.000   |a| =    30.000000
 CELL_TOP| Vector b [angstrom     0.000    30.000     0.000   |b| =    30.000000
 CELL_TOP| Vector c [angstrom     0.000     0.000    30.000   |c| =    30.000000
 CELL_TOP| Angle (b,c), alpha [degree]:                                90.000000
 CELL_TOP| Angle (a,c), beta  [degree]:                                90.000000
 CELL_TOP| Angle (a,b), gamma [degree]:                                90.000000
 CELL_TOP| Numerically orthorhombic:                                         YES
 CELL_TOP| Periodicity                                                      NONE

 GENERATE|  Preliminary Number of Bonds generated:                             0
 GENERATE|  Achieved consistency in connectivity generation.

 CELL| Volume [angstrom^3]:                                         27000.000000
 CELL| Vector a [angstrom]:      30.000     0.000     0.000   |a| =    30.000000
 CELL| Vector b [angstrom]:       0.000    30.000     0.000   |b| =    30.000000
 CELL| Vector c [angstrom]:       0.000     0.000    30.000   |c| =    30.000000
 CELL| Angle (b,c), alpha [degree]:                                    90.000000
 CELL| Angle (a,c), beta  [degree]:                                    90.000000
 CELL| Angle (a,b), gamma [degree]:                                    90.000000
 CELL| Numerically orthorhombic:                                             YES
 CELL| Periodicity                                                          NONE

 CELL_REF| Volume [angstrom^3]:                                     27000.000000
 CELL_REF| Vector a [angstrom    30.000     0.000     0.000   |a| =    30.000000
 CELL_REF| Vector b [angstrom     0.000    30.000     0.000   |b| =    30.000000
 CELL_REF| Vector c [angstrom     0.000     0.000    30.000   |c| =    30.000000
 CELL_REF| Angle (b,c), alpha [degree]:                                90.000000
 CELL_REF| Angle (a,c), beta  [degree]:                                90.000000
 CELL_REF| Angle (a,b), gamma [degree]:                                90.000000
 CELL_REF| Numerically orthorhombic:                                         YES
 CELL_REF| Periodicity                                                      NONE

 *******************************************************************************
 *******************************************************************************
 **                                                                           **
 **     #####                         ##              ##                      **
 **    ##   ##            ##          ##              ##                      **
 **   ##     ##                       ##            ######                    **
 **   ##     ##  ##   ##  ##   #####  ##  ##   ####   ##    #####    #####    **
 **   ##     ##  ##   ##  ##  ##      ## ##   ##      ##   ##   ##  ##   ##   **
 **   ##  ## ##  ##   ##  ##  ##      ####     ###    ##   ######   ######    **
 **    ##  ###   ##   ##  ##  ##      ## ##      ##   ##   ##       ##        **
 **     #######   #####   ##   #####  ##  ##  ####    ##    #####   ##        **
 **           ##                                                    ##        **
 **                                                                           **
 **                                                ... make the atoms dance   **
 **                                                                           **
 **            Copyright (C) by CP2K developers group (2000-2025)             **
 **                      J. Chem. Phys. 152, 194103 (2020)                    **
 **                                                                           **
 *******************************************************************************

 DFT| Spin restricted Kohn-Sham (RKS) calculation                            RKS
 DFT| Multiplicity                                                             1
 DFT| Number of spin states                                                    1
 DFT| Charge                                                                   0
 DFT| Self-interaction correction (SIC)                                       NO
 DFT| Cutoffs: density                                              1.000000E-10
 DFT|          gradient                                             1.000000E-10
 DFT|          tau                                                  1.000000E-10
 DFT|          cutoff_smoothing_range                               0.000000E+00
 DFT| XC density smoothing                                                  NONE
 DFT| XC derivatives                                                          PW

 FUNCTIONAL| PBE:
 FUNCTIONAL| J.P.Perdew, K.Burke, M.Ernzerhof, Phys. Rev. Letter, vol. 77, n 18,
 FUNCTIONAL|  pp. 3865-3868, (1996)sx=0.750sc=1.000{spin unpolarized}           


 QS| Method:                                                                GAPW
 QS| Density plane wave grid type                        NON-SPHERICAL FULLSPACE
 QS| Number of grid levels:                                                    4
 QS| Density cutoff [a.u.]:                                                250.0
 QS| Multi grid cutoff [a.u.]: 1) grid level                               250.0
 QS|                           2) grid level                                83.3
 QS|                           3) grid level                                27.8
 QS|                           4) grid level                                 9.3
 QS| Grid level progression factor:                                          3.0
 QS| Relative density cutoff [a.u.]:                                        50.0
 QS| Interaction thresholds: eps_pgf_orb:                                1.0E-12
 QS|                         eps_filter_matrix:                          0.0E+00
 QS|                         eps_core_charge:                            1.0E-14
 QS|                         eps_rho_gspace:                             1.0E-12
 QS|                         eps_rho_rspace:                             1.0E-12
 QS|                         eps_gvg_rspace:                             1.0E-06
 QS|                         eps_ppl:                                    1.0E-02
 QS|                         eps_ppnl:                                   1.0E-08
 QS| GAPW|      One center basis from orbital basis primitives
 QS| GAPW|                   eps_fit:                                    1.0E-04
 QS| GAPW|                   eps_iso:                                    1.0E-12
 QS| GAPW|                   eps_svd:                                    1.0E-08
 QS| GAPW|                   eps_cpc:                                    1.0E-12
 QS| GAPW|   atom-r-grid: quadrature:                                     GC_LOG
 QS| GAPW|      atom-s-grid:  max l :                                         10
 QS| GAPW|      max_l_rho0 :                                                   2


 ATOMIC KIND INFORMATION

  1. Atomic kind: B                                     Number of atoms:       1

     Orbital Basis Set                                               aug-cc-pV5Z

       Number of orbital shell sets:                                          12
       Number of orbital shells:                                              27
       Number of primitive Cartesian functions:                               38
       Number of Cartesian basis functions:                                  182
       Number of spherical basis functions:                                  127
       Norm type:                                                              2

       Normalised Cartesian orbitals:

                        Set   Shell   Orbital            Exponent    Coefficient

                          1       1    1px               0.015700       0.007922
                          1       1    1py               0.015700       0.007922
                          1       1    1pz               0.015700       0.007922

                          2       1    1s                0.026100       0.046280

                          3       1    1dx2              0.043100       0.006710
                          3       1    1dxy              0.043100       0.011623
                          3       1    1dxz              0.043100       0.011623
                          3       1    1dy2              0.043100       0.006710
                          3       1    1dyz              0.043100       0.011623
                          3       1    1dz2              0.043100       0.006710

                          4       1    1px              66.440000       0.000000
                                                        15.710000       0.000000
                                                         4.936000       0.000000
                                                         1.770000       0.000000
                                                         0.700800       0.913972
                                                         0.290100       0.000000
                                                         0.121100       0.000000
                                                         0.049730       0.000000
                          4       1    1py              66.440000       0.000000
                                                        15.710000       0.000000
                                                         4.936000       0.000000
                                                         1.770000       0.000000
                                                         0.700800       0.913972
                                                         0.290100       0.000000
                                                         0.121100       0.000000
                                                         0.049730       0.000000
                          4       1    1pz              66.440000       0.000000
                                                        15.710000       0.000000
                                                         4.936000       0.000000
                                                         1.770000       0.000000
                                                         0.700800       0.913972
                                                         0.290100       0.000000
                                                         0.121100       0.000000
                                                         0.049730       0.000000

                          4       2    2px              66.440000       0.000000
                                                        15.710000       0.000000
                                                         4.936000       0.000000
                                                         1.770000       0.000000
                                                         0.700800       0.000000
                                                         0.290100       0.303476
                                                         0.121100       0.000000
                                                         0.049730       0.000000
                          4       2    2py              66.440000       0.000000
                                                        15.710000       0.000000
                                                         4.936000       0.000000
                                                         1.770000       0.000000
                                                         0.700800       0.000000
                                                         0.290100       0.303476
                                                         0.121100       0.000000
                                                         0.049730       0.000000
                          4       2    2pz              66.440000       0.000000
                                                        15.710000       0.000000
                                                         4.936000       0.000000
                                                         1.770000       0.000000
                                                         0.700800       0.000000
                                                         0.290100       0.303476
                                                         0.121100       0.000000
                                                         0.049730       0.000000

                          4       3    3px              66.440000       0.226580
                                                        15.710000       0.285726
                                                         4.936000       0.294491
                                                         1.770000       0.268171
                                                         0.700800       0.204879
                                                         0.290100       0.112260
                                                         0.121100       0.038129
                                                         0.049730       0.004656
                          4       3    3py              66.440000       0.226580
                                                        15.710000       0.285726
                                                         4.936000       0.294491
                                                         1.770000       0.268171
                                                         0.700800       0.204879
                                                         0.290100       0.112260
                                                         0.121100       0.038129
                                                         0.049730       0.004656
                          4       3    3pz              66.440000       0.226580
                                                        15.710000       0.285726
                                                         4.936000       0.294491
                                                         1.770000       0.268171
                                                         0.700800       0.204879
                                                         0.290100       0.112260
                                                         0.121100       0.038129
                                                         0.049730       0.004656

                          4       4    4px              66.440000       0.000000
                                                        15.710000       0.000000
                                                         4.936000       0.000000
                                                         1.770000       0.000000
                                                         0.700800       0.000000
                                                         0.290100       0.000000
                                                         0.121100       0.101829
                                                         0.049730       0.000000
                          4       4    4py              66.440000       0.000000
                                                        15.710000       0.000000
                                                         4.936000       0.000000
                                                         1.770000       0.000000
                                                         0.700800       0.000000
                                                         0.290100       0.000000
                                                         0.121100       0.101829
                                                         0.049730       0.000000
                          4       4    4pz              66.440000       0.000000
                                                        15.710000       0.000000
                                                         4.936000       0.000000
                                                         1.770000       0.000000
                                                         0.700800       0.000000
                                                         0.290100       0.000000
                                                         0.121100       0.101829
                                                         0.049730       0.000000

                          4       5    5px              66.440000       0.000000
                                                        15.710000       0.000000
                                                         4.936000       0.000000
                                                         1.770000       0.000000
                                                         0.700800       0.000000
                                                         0.290100       0.000000
                                                         0.121100       0.000000
                                                         0.049730       0.033474
                          4       5    5py              66.440000       0.000000
                                                        15.710000       0.000000
                                                         4.936000       0.000000
                                                         1.770000       0.000000
                                                         0.700800       0.000000
                                                         0.290100       0.000000
                                                         0.121100       0.000000
                                                         0.049730       0.033474
                          4       5    5pz              66.440000       0.000000
                                                        15.710000       0.000000
                                                         4.936000       0.000000
                                                         1.770000       0.000000
                                                         0.700800       0.000000
                                                         0.290100       0.000000
                                                         0.121100       0.000000
                                                         0.049730       0.033474

                          5       1    1s            68260.000000       0.072235
                                                     10230.000000       0.134118
                                                      2328.000000       0.231696
                                                       660.400000       0.376585
                                                       216.200000       0.578608
                                                        78.600000       0.825946
                                                        30.980000       1.058080
                                                        12.960000       1.138295
                                                         5.659000       0.925591
                                                         2.556000       0.434446
                                                         1.175000       0.070396
                                                         0.424900       0.001057
                                                         0.171200       0.000008
                                                         0.069130       0.000007

                          5       2    2s            68260.000000       0.000000
                                                     10230.000000       0.000000
                                                      2328.000000       0.000000
                                                       660.400000       0.000000
                                                       216.200000       0.000000
                                                        78.600000       0.000000
                                                        30.980000       0.000000
                                                        12.960000       0.000000
                                                         5.659000       0.000000
                                                         2.556000       0.000000
                                                         1.175000       0.804338
                                                         0.424900       0.000000
                                                         0.171200       0.000000
                                                         0.069130       0.000000

                          5       3    3s            68260.000000       0.000000
                                                     10230.000000       0.000000
                                                      2328.000000       0.000000
                                                       660.400000       0.000000
                                                       216.200000       0.000000
                                                        78.600000       0.000000
                                                        30.980000       0.000000
                                                        12.960000       0.000000
                                                         5.659000       0.000000
                                                         2.556000       0.000000
                                                         1.175000       0.000000
                                                         0.424900       0.375081
                                                         0.171200       0.000000
                                                         0.069130       0.000000

                          5       4    4s            68260.000000       0.000000
                                                     10230.000000       0.000000
                                                      2328.000000       0.000000
                                                       660.400000       0.000000
                                                       216.200000       0.000000
                                                        78.600000       0.000000
                                                        30.980000       0.000000
                                                        12.960000       0.000000
                                                         5.659000       0.000000
                                                         2.556000       0.000000
                                                         1.175000       0.000000
                                                         0.424900       0.000000
                                                         0.171200       0.189687
                                                         0.069130       0.000000

                          5       5    5s            68260.000000      -0.015049
                                                     10230.000000      -0.026824
                                                      2328.000000      -0.046817
                                                       660.400000      -0.076506
                                                       216.200000      -0.117458
                                                        78.600000      -0.171921
                                                        30.980000      -0.225594
                                                        12.960000      -0.266556
                                                         5.659000      -0.253502
                                                         2.556000      -0.198078
                                                         1.175000      -0.035845
                                                         0.424900       0.121656
                                                         0.171200       0.108200
                                                         0.069130       0.023392

                          5       6    6s            68260.000000       0.000000
                                                     10230.000000       0.000000
                                                      2328.000000       0.000000
                                                       660.400000       0.000000
                                                       216.200000       0.000000
                                                        78.600000       0.000000
                                                        30.980000       0.000000
                                                        12.960000       0.000000
                                                         5.659000       0.000000
                                                         2.556000       0.000000
                                                         1.175000       0.000000
                                                         0.424900       0.000000
                                                         0.171200       0.000000
                                                         0.069130       0.096086

                          6       1    1fx3              0.084300       0.005637
                          6       1    1fx2y             0.084300       0.012605
                          6       1    1fx2z             0.084300       0.012605
                          6       1    1fxy2             0.084300       0.012605
                          6       1    1fxyz             0.084300       0.021833
                          6       1    1fxz2             0.084300       0.012605
                          6       1    1fy3              0.084300       0.005637
                          6       1    1fy2z             0.084300       0.012605
                          6       1    1fyz2             0.084300       0.012605
                          6       1    1fz3              0.084300       0.005637

                          7       1    1dx2              2.010000       5.584735
                                                         0.796000       0.000000
                                                         0.316000       0.000000
                                                         0.125000       0.000000
                          7       1    1dxy              2.010000       9.673044
                                                         0.796000       0.000000
                                                         0.316000       0.000000
                                                         0.125000       0.000000
                          7       1    1dxz              2.010000       9.673044
                                                         0.796000       0.000000
                                                         0.316000       0.000000
                                                         0.125000       0.000000
                          7       1    1dy2              2.010000       5.584735
                                                         0.796000       0.000000
                                                         0.316000       0.000000
                                                         0.125000       0.000000
                          7       1    1dyz              2.010000       9.673044
                                                         0.796000       0.000000
                                                         0.316000       0.000000
                                                         0.125000       0.000000
                          7       1    1dz2              2.010000       5.584735
                                                         0.796000       0.000000
                                                         0.316000       0.000000
                                                         0.125000       0.000000

                          7       2    2dx2              2.010000       0.000000
                                                         0.796000       1.104097
                                                         0.316000       0.000000
                                                         0.125000       0.000000
                          7       2    2dxy              2.010000       0.000000
                                                         0.796000       1.912353
                                                         0.316000       0.000000
                                                         0.125000       0.000000
                          7       2    2dxz              2.010000       0.000000
                                                         0.796000       1.912353
                                                         0.316000       0.000000
                                                         0.125000       0.000000
                          7       2    2dy2              2.010000       0.000000
                                                         0.796000       1.104097
                                                         0.316000       0.000000
                                                         0.125000       0.000000
                          7       2    2dyz              2.010000       0.000000
                                                         0.796000       1.912353
                                                         0.316000       0.000000
                                                         0.125000       0.000000
                          7       2    2dz2              2.010000       0.000000
                                                         0.796000       1.104097
                                                         0.316000       0.000000
                                                         0.125000       0.000000

                          7       3    3dx2              2.010000       0.000000
                                                         0.796000       0.000000
                                                         0.316000       0.219211
                                                         0.125000       0.000000
                          7       3    3dxy              2.010000       0.000000
                                                         0.796000       0.000000
                                                         0.316000       0.379684
                                                         0.125000       0.000000
                          7       3    3dxz              2.010000       0.000000
                                                         0.796000       0.000000
                                                         0.316000       0.379684
                                                         0.125000       0.000000
                          7       3    3dy2              2.010000       0.000000
                                                         0.796000       0.000000
                                                         0.316000       0.219211
                                                         0.125000       0.000000
                          7       3    3dyz              2.010000       0.000000
                                                         0.796000       0.000000
                                                         0.316000       0.379684
                                                         0.125000       0.000000
                          7       3    3dz2              2.010000       0.000000
                                                         0.796000       0.000000
                                                         0.316000       0.219211
                                                         0.125000       0.000000

                          7       4    4dx2              2.010000       0.000000
                                                         0.796000       0.000000
                                                         0.316000       0.000000
                                                         0.125000       0.043252
                          7       4    4dxy              2.010000       0.000000
                                                         0.796000       0.000000
                                                         0.316000       0.000000
                                                         0.125000       0.074914
                          7       4    4dxz              2.010000       0.000000
                                                         0.796000       0.000000
                                                         0.316000       0.000000
                                                         0.125000       0.074914
                          7       4    4dy2              2.010000       0.000000
                                                         0.796000       0.000000
                                                         0.316000       0.000000
                                                         0.125000       0.043252
                          7       4    4dyz              2.010000       0.000000
                                                         0.796000       0.000000
                                                         0.316000       0.000000
                                                         0.125000       0.074914
                          7       4    4dz2              2.010000       0.000000
                                                         0.796000       0.000000
                                                         0.316000       0.000000
                                                         0.125000       0.043252

                          8       1    1gx4              0.202000       0.013682
                          8       1    1gx3y             0.202000       0.036199
                          8       1    1gx3z             0.202000       0.036199
                          8       1    1gx2y2            0.202000       0.046733
                          8       1    1gx2yz            0.202000       0.080944
                          8       1    1gx2z2            0.202000       0.046733
                          8       1    1gxy3             0.202000       0.036199
                          8       1    1gxy2z            0.202000       0.080944
                          8       1    1gxyz2            0.202000       0.080944
                          8       1    1gxz3             0.202000       0.036199
                          8       1    1gy4              0.202000       0.013682
                          8       1    1gy3z             0.202000       0.036199
                          8       1    1gy2z2            0.202000       0.046733
                          8       1    1gyz3             0.202000       0.036199
                          8       1    1gz4              0.202000       0.013682

                          9       1    1fx3              1.215000       2.281661
                                                         0.525000       0.000000
                                                         0.227000       0.000000
                          9       1    1fx2y             1.215000       5.101949
                                                         0.525000       0.000000
                                                         0.227000       0.000000
                          9       1    1fx2z             1.215000       5.101949
                                                         0.525000       0.000000
                                                         0.227000       0.000000
                          9       1    1fxy2             1.215000       5.101949
                                                         0.525000       0.000000
                                                         0.227000       0.000000
                          9       1    1fxyz             1.215000       8.836834
                                                         0.525000       0.000000
                                                         0.227000       0.000000
                          9       1    1fxz2             1.215000       5.101949
                                                         0.525000       0.000000
                                                         0.227000       0.000000
                          9       1    1fy3              1.215000       2.281661
                                                         0.525000       0.000000
                                                         0.227000       0.000000
                          9       1    1fy2z             1.215000       5.101949
                                                         0.525000       0.000000
                                                         0.227000       0.000000
                          9       1    1fyz2             1.215000       5.101949
                                                         0.525000       0.000000
                                                         0.227000       0.000000
                          9       1    1fz3              1.215000       2.281661
                                                         0.525000       0.000000
                                                         0.227000       0.000000

                          9       2    2fx3              1.215000       0.000000
                                                         0.525000       0.345392
                                                         0.227000       0.000000
                          9       2    2fx2y             1.215000       0.000000
                                                         0.525000       0.772321
                                                         0.227000       0.000000
                          9       2    2fx2z             1.215000       0.000000
                                                         0.525000       0.772321
                                                         0.227000       0.000000
                          9       2    2fxy2             1.215000       0.000000
                                                         0.525000       0.772321
                                                         0.227000       0.000000
                          9       2    2fxyz             1.215000       0.000000
                                                         0.525000       1.337699
                                                         0.227000       0.000000
                          9       2    2fxz2             1.215000       0.000000
                                                         0.525000       0.772321
                                                         0.227000       0.000000
                          9       2    2fy3              1.215000       0.000000
                                                         0.525000       0.345392
                                                         0.227000       0.000000
                          9       2    2fy2z             1.215000       0.000000
                                                         0.525000       0.772321
                                                         0.227000       0.000000
                          9       2    2fyz2             1.215000       0.000000
                                                         0.525000       0.772321
                                                         0.227000       0.000000
                          9       2    2fz3              1.215000       0.000000
                                                         0.525000       0.345392
                                                         0.227000       0.000000

                          9       3    3fx3              1.215000       0.000000
                                                         0.525000       0.000000
                                                         0.227000       0.052362
                          9       3    3fx2y             1.215000       0.000000
                                                         0.525000       0.000000
                                                         0.227000       0.117084
                          9       3    3fx2z             1.215000       0.000000
                                                         0.525000       0.000000
                                                         0.227000       0.117084
                          9       3    3fxy2             1.215000       0.000000
                                                         0.525000       0.000000
                                                         0.227000       0.117084
                          9       3    3fxyz             1.215000       0.000000
                                                         0.525000       0.000000
                                                         0.227000       0.202795
                          9       3    3fxz2             1.215000       0.000000
                                                         0.525000       0.000000
                                                         0.227000       0.117084
                          9       3    3fy3              1.215000       0.000000
                                                         0.525000       0.000000
                                                         0.227000       0.052362
                          9       3    3fy2z             1.215000       0.000000
                                                         0.525000       0.000000
                                                         0.227000       0.117084
                          9       3    3fyz2             1.215000       0.000000
                                                         0.525000       0.000000
                                                         0.227000       0.117084
                          9       3    3fz3              1.215000       0.000000
                                                         0.525000       0.000000
                                                         0.227000       0.052362

                         10       1    1hx5              0.384000       0.033069
                         10       1    1hx4y             0.384000       0.099207
                         10       1    1hx4z             0.384000       0.099207
                         10       1    1hx3y2            0.384000       0.151541
                         10       1    1hx3yz            0.384000       0.262477
                         10       1    1hx3z2            0.384000       0.151541
                         10       1    1hx2y3            0.384000       0.151541
                         10       1    1hx2y2z           0.384000       0.338856
                         10       1    1hx2yz2           0.384000       0.338856
                         10       1    1hx2z3            0.384000       0.151541
                         10       1    1hxy4             0.384000       0.099207
                         10       1    1hxy3z            0.384000       0.262477
                         10       1    1hxy2z2           0.384000       0.338856
                         10       1    1hxyz3            0.384000       0.262477
                         10       1    1hxz4             0.384000       0.099207
                         10       1    1hy5              0.384000       0.033069
                         10       1    1hy4z             0.384000       0.099207
                         10       1    1hy3z2            0.384000       0.151541
                         10       1    1hy2z3            0.384000       0.151541
                         10       1    1hyz4             0.384000       0.099207
                         10       1    1hz5              0.384000       0.033069

                         11       1    1gx4              1.124000       1.534768
                                                         0.461000       0.000000
                         11       1    1gx3y             1.124000       4.060615
                                                         0.461000       0.000000
                         11       1    1gx3z             1.124000       4.060615
                                                         0.461000       0.000000
                         11       1    1gx2y2            1.124000       5.242231
                                                         0.461000       0.000000
                         11       1    1gx2yz            1.124000       9.079811
                                                         0.461000       0.000000
                         11       1    1gx2z2            1.124000       5.242231
                                                         0.461000       0.000000
                         11       1    1gxy3             1.124000       4.060615
                                                         0.461000       0.000000
                         11       1    1gxy2z            1.124000       9.079811
                                                         0.461000       0.000000
                         11       1    1gxyz2            1.124000       9.079811
                                                         0.461000       0.000000
                         11       1    1gxz3             1.124000       4.060615
                                                         0.461000       0.000000
                         11       1    1gy4              1.124000       1.534768
                                                         0.461000       0.000000
                         11       1    1gy3z             1.124000       4.060615
                                                         0.461000       0.000000
                         11       1    1gy2z2            1.124000       5.242231
                                                         0.461000       0.000000
                         11       1    1gyz3             1.124000       4.060615
                                                         0.461000       0.000000
                         11       1    1gz4              1.124000       1.534768
                                                         0.461000       0.000000

                         11       2    2gx4              1.124000       0.000000
                                                         0.461000       0.132316
                         11       2    2gx3y             1.124000       0.000000
                                                         0.461000       0.350076
                         11       2    2gx3z             1.124000       0.000000
                                                         0.461000       0.350076
                         11       2    2gx2y2            1.124000       0.000000
                                                         0.461000       0.451946
                         11       2    2gx2yz            1.124000       0.000000
                                                         0.461000       0.782793
                         11       2    2gx2z2            1.124000       0.000000
                                                         0.461000       0.451946
                         11       2    2gxy3             1.124000       0.000000
                                                         0.461000       0.350076
                         11       2    2gxy2z            1.124000       0.000000
                                                         0.461000       0.782793
                         11       2    2gxyz2            1.124000       0.000000
                                                         0.461000       0.782793
                         11       2    2gxz3             1.124000       0.000000
                                                         0.461000       0.350076
                         11       2    2gy4              1.124000       0.000000
                                                         0.461000       0.132316
                         11       2    2gy3z             1.124000       0.000000
                                                         0.461000       0.350076
                         11       2    2gy2z2            1.124000       0.000000
                                                         0.461000       0.451946
                         11       2    2gyz3             1.124000       0.000000
                                                         0.461000       0.350076
                         11       2    2gz4              1.124000       0.000000
                                                         0.461000       0.132316

                         12       1    1hx5              0.834000       0.411276
                         12       1    1hx4y             0.834000       1.233829
                         12       1    1hx4z             0.834000       1.233829
                         12       1    1hx3y2            0.834000       1.884705
                         12       1    1hx3yz            0.834000       3.264406
                         12       1    1hx3z2            0.834000       1.884705
                         12       1    1hx2y3            0.834000       1.884705
                         12       1    1hx2y2z           0.834000       4.214329
                         12       1    1hx2yz2           0.834000       4.214329
                         12       1    1hx2z3            0.834000       1.884705
                         12       1    1hxy4             0.834000       1.233829
                         12       1    1hxy3z            0.834000       3.264406
                         12       1    1hxy2z2           0.834000       4.214329
                         12       1    1hxyz3            0.834000       3.264406
                         12       1    1hxz4             0.834000       1.233829
                         12       1    1hy5              0.834000       0.411276
                         12       1    1hy4z             0.834000       1.233829
                         12       1    1hy3z2            0.834000       1.884705
                         12       1    1hy2z3            0.834000       1.884705
                         12       1    1hyz4             0.834000       1.233829
                         12       1    1hz5              0.834000       0.411276

     RI Auxiliary Basis Set                                    aug-cc-pV5Z-OPTRI

       Number of orbital shell sets:                                          22
       Number of orbital shells:                                              22
       Number of primitive Cartesian functions:                               22
       Number of Cartesian basis functions:                                  188
       Number of spherical basis functions:                                  122
       Norm type:                                                              2

       Normalised Cartesian orbitals:

                        Set   Shell   Orbital            Exponent    Coefficient

                          1       1    1px               0.074635       0.055606
                          1       1    1py               0.074635       0.055606
                          1       1    1pz               0.074635       0.055606

                          2       1    1gx4              0.103515       0.002176
                          2       1    1gx3y             0.103515       0.005758
                          2       1    1gx3z             0.103515       0.005758
                          2       1    1gx2y2            0.103515       0.007433
                          2       1    1gx2yz            0.103515       0.012874
                          2       1    1gx2z2            0.103515       0.007433
                          2       1    1gxy3             0.103515       0.005758
                          2       1    1gxy2z            0.103515       0.012874
                          2       1    1gxyz2            0.103515       0.012874
                          2       1    1gxz3             0.103515       0.005758
                          2       1    1gy4              0.103515       0.002176
                          2       1    1gy3z             0.103515       0.005758
                          2       1    1gy2z2            0.103515       0.007433
                          2       1    1gyz3             0.103515       0.005758
                          2       1    1gz4              0.103515       0.002176

                          3       1    1s                0.104872       0.131342

                          4       1    1px               0.184504       0.172364
                          4       1    1py               0.184504       0.172364
                          4       1    1pz               0.184504       0.172364

                          5       1    1hx5              0.256227       0.008879
                          5       1    1hx4y             0.256227       0.026638
                          5       1    1hx4z             0.256227       0.026638
                          5       1    1hx3y2            0.256227       0.040690
                          5       1    1hx3yz            0.256227       0.070477
                          5       1    1hx3z2            0.256227       0.040690
                          5       1    1hx2y3            0.256227       0.040690
                          5       1    1hx2y2z           0.256227       0.090985
                          5       1    1hx2yz2           0.256227       0.090985
                          5       1    1hx2z3            0.256227       0.040690
                          5       1    1hxy4             0.256227       0.026638
                          5       1    1hxy3z            0.256227       0.070477
                          5       1    1hxy2z2           0.256227       0.090985
                          5       1    1hxyz3            0.256227       0.070477
                          5       1    1hxz4             0.256227       0.026638
                          5       1    1hy5              0.256227       0.008879
                          5       1    1hy4z             0.256227       0.026638
                          5       1    1hy3z2            0.256227       0.040690
                          5       1    1hy2z3            0.256227       0.040690
                          5       1    1hyz4             0.256227       0.026638
                          5       1    1hz5              0.256227       0.008879

                          6       1    1s                0.272763       0.268998

                          7       1    1fx3              0.350042       0.138747
                          7       1    1fx2y             0.350042       0.310249
                          7       1    1fx2z             0.350042       0.310249
                          7       1    1fxy2             0.350042       0.310249
                          7       1    1fxyz             0.350042       0.537366
                          7       1    1fxz2             0.350042       0.310249
                          7       1    1fy3              0.350042       0.138747
                          7       1    1fy2z             0.350042       0.310249
                          7       1    1fyz2             0.350042       0.310249
                          7       1    1fz3              0.350042       0.138747

                          8       1    1px               0.437892       0.507749
                          8       1    1py               0.437892       0.507749
                          8       1    1pz               0.437892       0.507749

                          9       1    1dx2              0.474035       0.445736
                          9       1    1dxy              0.474035       0.772037
                          9       1    1dxz              0.474035       0.772037
                          9       1    1dy2              0.474035       0.445736
                          9       1    1dyz              0.474035       0.772037
                          9       1    1dz2              0.474035       0.445736

                         10       1    1gx4              0.692494       0.405116
                         10       1    1gx3y             0.692494       1.071836
                         10       1    1gx3z             0.692494       1.071836
                         10       1    1gx2y2            0.692494       1.383735
                         10       1    1gx2yz            0.692494       2.396699
                         10       1    1gx2z2            0.692494       1.383735
                         10       1    1gxy3             0.692494       1.071836
                         10       1    1gxy2z            0.692494       2.396699
                         10       1    1gxyz2            0.692494       2.396699
                         10       1    1gxz3             0.692494       1.071836
                         10       1    1gy4              0.692494       0.405116
                         10       1    1gy3z             0.692494       1.071836
                         10       1    1gy2z2            0.692494       1.383735
                         10       1    1gyz3             0.692494       1.071836
                         10       1    1gz4              0.692494       0.405116

                         11       1    1s                0.783985       0.593801

                         12       1    1fx3              0.808695       0.912999
                         12       1    1fx2y             0.808695       2.041527
                         12       1    1fx2z             0.808695       2.041527
                         12       1    1fxy2             0.808695       2.041527
                         12       1    1fxyz             0.808695       3.536029
                         12       1    1fxz2             0.808695       2.041527
                         12       1    1fy3              0.808695       0.912999
                         12       1    1fy2z             0.808695       2.041527
                         12       1    1fyz2             0.808695       2.041527
                         12       1    1fz3              0.808695       0.912999

                         13       1    1ix6              0.850725       0.243999
                         13       1    1ix5y             0.850725       0.809252
                         13       1    1ix5z             0.850725       0.809252
                         13       1    1ix4y2            0.850725       1.401665
                         13       1    1ix4yz            0.850725       2.427755
                         13       1    1ix4z2            0.850725       1.401665
                         13       1    1ix3y3            0.850725       1.658473
                         13       1    1ix3y2z           0.850725       3.708457
                         13       1    1ix3yz2           0.850725       3.708457
                         13       1    1ix3z3            0.850725       1.658473
                         13       1    1ix2y4            0.850725       1.401665
                         13       1    1ix2y3z           0.850725       3.708457
                         13       1    1ix2y2z2          0.850725       4.787598
                         13       1    1ix2yz3           0.850725       3.708457
                         13       1    1ix2z4            0.850725       1.401665
                         13       1    1ixy5             0.850725       0.809252
                         13       1    1ixy4z            0.850725       2.427755
                         13       1    1ixy3z2           0.850725       3.708457
                         13       1    1ixy2z3           0.850725       3.708457
                         13       1    1ixyz4            0.850725       2.427755
                         13       1    1ixz5             0.850725       0.809252
                         13       1    1iy6              0.850725       0.243999
                         13       1    1iy5z             0.850725       0.809252
                         13       1    1iy4z2            0.850725       1.401665
                         13       1    1iy3z3            0.850725       1.658473
                         13       1    1iy2z4            0.850725       1.401665
                         13       1    1iyz5             0.850725       0.809252
                         13       1    1iz6              0.850725       0.243999

                         14       1    1dx2              1.234289       2.378970
                         14       1    1dxy              1.234289       4.120497
                         14       1    1dxz              1.234289       4.120497
                         14       1    1dy2              1.234289       2.378970
                         14       1    1dyz              1.234289       4.120497
                         14       1    1dz2              1.234289       2.378970

                         15       1    1px               1.290632       1.960844
                         15       1    1py               1.290632       1.960844
                         15       1    1pz               1.290632       1.960844

                         16       1    1hx5              1.326235       1.857209
                         16       1    1hx4y             1.326235       5.571627
                         16       1    1hx4z             1.326235       5.571627
                         16       1    1hx3y2            1.326235       8.510800
                         16       1    1hx3yz            1.326235      14.741138
                         16       1    1hx3z2            1.326235       8.510800
                         16       1    1hx2y3            1.326235       8.510800
                         16       1    1hx2y2z           1.326235      19.030728
                         16       1    1hx2yz2           1.326235      19.030728
                         16       1    1hx2z3            1.326235       8.510800
                         16       1    1hxy4             1.326235       5.571627
                         16       1    1hxy3z            1.326235      14.741138
                         16       1    1hxy2z2           1.326235      19.030728
                         16       1    1hxyz3            1.326235      14.741138
                         16       1    1hxz4             1.326235       5.571627
                         16       1    1hy5              1.326235       1.857209
                         16       1    1hy4z             1.326235       5.571627
                         16       1    1hy3z2            1.326235       8.510800
                         16       1    1hy2z3            1.326235       8.510800
                         16       1    1hyz4             1.326235       5.571627
                         16       1    1hz5              1.326235       1.857209

                         17       1    1gx4              2.177959       9.463943
                         17       1    1gx3y             2.177959      25.039239
                         17       1    1gx3z             2.177959      25.039239
                         17       1    1gx2y2            2.177959      32.325518
                         17       1    1gx2yz            2.177959      55.989440
                         17       1    1gx2z2            2.177959      32.325518
                         17       1    1gxy3             2.177959      25.039239
                         17       1    1gxy2z            2.177959      55.989440
                         17       1    1gxyz2            2.177959      55.989440
                         17       1    1gxz3             2.177959      25.039239
                         17       1    1gy4              2.177959       9.463943
                         17       1    1gy3z             2.177959      25.039239
                         17       1    1gy2z2            2.177959      32.325518
                         17       1    1gyz3             2.177959      25.039239
                         17       1    1gz4              2.177959       9.463943

                         18       1    1px               2.884858       5.359147
                         18       1    1py               2.884858       5.359147
                         18       1    1pz               2.884858       5.359147

                         19       1    1s                3.031807       1.637519

                         20       1    1dx2              3.102728      11.938807
                         20       1    1dxy              3.102728      20.678621
                         20       1    1dxz              3.102728      20.678621
                         20       1    1dy2              3.102728      11.938807
                         20       1    1dyz              3.102728      20.678621
                         20       1    1dz2              3.102728      11.938807

                         21       1    1fx3              3.441814      23.753417
                         21       1    1fx2y             3.441814      53.114255
                         21       1    1fx2z             3.441814      53.114255
                         21       1    1fxy2             3.441814      53.114255
                         21       1    1fxyz             3.441814      91.996588
                         21       1    1fxz2             3.441814      53.114255
                         21       1    1fy3              3.441814      23.753417
                         21       1    1fy2z             3.441814      53.114255
                         21       1    1fyz2             3.441814      53.114255
                         21       1    1fz3              3.441814      23.753417

                         22       1    1dx2              4.809839      25.712121
                         22       1    1dxy              4.809839      44.534700
                         22       1    1dxz              4.809839      44.534700
                         22       1    1dy2              4.809839      25.712121
                         22       1    1dyz              4.809839      44.534700
                         22       1    1dz2              4.809839      25.712121

       Atomic covalent radius [Angstrom]:                                  0.820

       Atomic van der Waals radius [Angstrom]:                             1.920

     The atoms of this atomic kind are PAW atoms (GAPW):
       Hard Gaussian function radius:                                      1.512
       Rho0 radius:                                                        1.512
       Maximum GTO radius used for PAW projector construction:            24.566

     GAPW Soft Basis Set                                        aug-cc-pV5Z_soft

       Number of orbital shell sets:                                          12
       Number of orbital shells:                                              27
       Number of primitive Cartesian functions:                               26
       Number of Cartesian basis functions:                                  182
       Number of spherical basis functions:                                  127
       Norm type:                                                              2

       Normalised Cartesian orbitals:

                        Set   Shell   Orbital            Exponent    Coefficient

                          1       1    1px               0.015700       0.007922
                          1       1    1py               0.015700       0.007922
                          1       1    1pz               0.015700       0.007922

                          2       1    1s                0.026100       0.046280

                          3       1    1dx2              0.043100       0.006710
                          3       1    1dxy              0.043100       0.011623
                          3       1    1dxz              0.043100       0.011623
                          3       1    1dy2              0.043100       0.006710
                          3       1    1dyz              0.043100       0.011623
                          3       1    1dz2              0.043100       0.006710

                          4       1    1px               1.770000       0.000000
                                                         0.700800       0.913972
                                                         0.290100       0.000000
                                                         0.121100       0.000000
                                                         0.049730       0.000000
                          4       1    1py               1.770000       0.000000
                                                         0.700800       0.913972
                                                         0.290100       0.000000
                                                         0.121100       0.000000
                                                         0.049730       0.000000
                          4       1    1pz               1.770000       0.000000
                                                         0.700800       0.913972
                                                         0.290100       0.000000
                                                         0.121100       0.000000
                                                         0.049730       0.000000

                          4       2    2px               1.770000       0.000000
                                                         0.700800       0.000000
                                                         0.290100       0.303476
                                                         0.121100       0.000000
                                                         0.049730       0.000000
                          4       2    2py               1.770000       0.000000
                                                         0.700800       0.000000
                                                         0.290100       0.303476
                                                         0.121100       0.000000
                                                         0.049730       0.000000
                          4       2    2pz               1.770000       0.000000
                                                         0.700800       0.000000
                                                         0.290100       0.303476
                                                         0.121100       0.000000
                                                         0.049730       0.000000

                          4       3    3px               1.770000       0.268171
                                                         0.700800       0.204879
                                                         0.290100       0.112260
                                                         0.121100       0.038129
                                                         0.049730       0.004656
                          4       3    3py               1.770000       0.268171
                                                         0.700800       0.204879
                                                         0.290100       0.112260
                                                         0.121100       0.038129
                                                         0.049730       0.004656
                          4       3    3pz               1.770000       0.268171
[...]
   418 Broy./Diag. 0.10E+00    7.7     0.18985826       -79.4903525340  4.95E-02
   419 Broy./Diag. 0.10E+00    7.6     0.18662364       -79.4473103549  4.30E-02
   420 Broy./Diag. 0.10E+00    7.6     0.13442928       -79.4505456345 -3.24E-03
   421 Broy./Diag. 0.10E+00    7.7     0.12113651       -79.4073481421  4.32E-02
   422 Broy./Diag. 0.10E+00    7.6     0.13479252       -79.3099100079  9.74E-02
   423 Broy./Diag. 0.10E+00    7.7     0.10921606       -79.0453311581  2.65E-01
   424 Broy./Diag. 0.10E+00    7.6     0.06139253       -78.9560579114  8.93E-02
   425 Broy./Diag. 0.10E+00    7.6     0.04384543       -78.9103931323  4.57E-02
   426 Broy./Diag. 0.10E+00    7.6     0.04626329       -78.8383458185  7.20E-02
   427 Broy./Diag. 0.10E+00    7.6     0.11853140       -79.0026992321 -1.64E-01
   428 Broy./Diag. 0.10E+00    7.6     0.09393499       -79.2943905570 -2.92E-01
   429 Broy./Diag. 0.10E+00    7.6     0.25034139       -79.5852155174 -2.91E-01
   430 Broy./Diag. 0.10E+00    7.6     0.25916383       -79.4392633160  1.46E-01
   431 Broy./Diag. 0.10E+00    7.6     0.29277646       -79.1300632566  3.09E-01
   432 Broy./Diag. 0.10E+00    7.7     0.20498892       -79.0213961016  1.09E-01
   433 Broy./Diag. 0.10E+00    7.6     0.17230647       -79.4973065724 -4.76E-01
   434 Broy./Diag. 0.10E+00    7.6     0.16465363       -79.6779363443 -1.81E-01
   435 Broy./Diag. 0.10E+00    7.5     0.08119334       -79.8377258932 -1.60E-01
   436 Broy./Diag. 0.10E+00    7.5     0.06759866       -79.9058750972 -6.81E-02
   437 Broy./Diag. 0.10E+00    7.5     0.12359791       -80.0061396799 -1.00E-01
   438 Broy./Diag. 0.10E+00    7.5     0.18246537       -79.9504090992  5.57E-02
   439 Broy./Diag. 0.10E+00    7.5     0.25340651       -79.7744494754  1.76E-01
   440 Broy./Diag. 0.10E+00    7.5     0.20231476       -79.5032120190  2.71E-01
   441 Broy./Diag. 0.10E+00    7.6     0.15645322       -79.3807177872  1.22E-01
   442 Broy./Diag. 0.10E+00    7.5     0.05923921       -79.2522060210  1.29E-01
   443 Broy./Diag. 0.10E+00    7.6     0.05036516       -79.2612685258 -9.06E-03
   444 Broy./Diag. 0.10E+00    7.6     0.09023329       -79.3648518416 -1.04E-01
   445 Broy./Diag. 0.10E+00    7.6     0.10586725       -79.5770317987 -2.12E-01
   446 Broy./Diag. 0.10E+00    7.5     0.06226463       -79.6106788713 -3.36E-02
   447 Broy./Diag. 0.10E+00    7.5     0.06179567       -79.4954750864  1.15E-01
   448 Broy./Diag. 0.10E+00    7.5     0.08691181       -79.5284392966 -3.30E-02
   449 Broy./Diag. 0.10E+00    7.5     0.10977356       -79.4232866095  1.05E-01
   450 Broy./Diag. 0.10E+00    7.5     0.11398171       -79.2830172142  1.40E-01
   451 Broy./Diag. 0.10E+00    7.6     0.10371514       -79.2518346264  3.12E-02
   452 Broy./Diag. 0.10E+00    7.6     0.10564228       -79.2372766678  1.46E-02
   453 Broy./Diag. 0.10E+00    7.6     0.08863867       -79.2449704716 -7.69E-03
   454 Broy./Diag. 0.10E+00    7.5     0.07441383       -79.2269251813  1.80E-02
   455 Broy./Diag. 0.10E+00    7.6     0.05438487       -79.2287432087 -1.82E-03
   456 Broy./Diag. 0.10E+00    7.6     0.03796333       -79.2843969251 -5.57E-02
   457 Broy./Diag. 0.10E+00    7.6     0.05666438       -79.2837421377  6.55E-04
   458 Broy./Diag. 0.10E+00    7.6     0.05551132       -79.1782571810  1.05E-01
   459 Broy./Diag. 0.10E+00    7.5     0.04812152       -79.0805318258  9.77E-02
   460 Broy./Diag. 0.10E+00    7.5     0.11105630       -79.1243142320 -4.38E-02
   461 Broy./Diag. 0.10E+00    7.6     0.17968426       -79.3297706387 -2.05E-01
   462 Broy./Diag. 0.10E+00    7.6     0.23129867       -79.5249341102 -1.95E-01
   463 Broy./Diag. 0.10E+00    7.6     0.20581394       -79.6299334463 -1.05E-01
   464 Broy./Diag. 0.10E+00    7.6     0.19132863       -79.6627108436 -3.28E-02
   465 Broy./Diag. 0.10E+00    7.5     0.11376170       -79.6873762144 -2.47E-02
   466 Broy./Diag. 0.10E+00    7.5     0.03770812       -79.7494997039 -6.21E-02
   467 Broy./Diag. 0.10E+00    7.5     0.03984112       -79.7355588961  1.39E-02
   468 Broy./Diag. 0.10E+00    7.5     0.06900298       -79.7669297331 -3.14E-02
   469 Broy./Diag. 0.10E+00    7.6     0.07934208       -79.6585443139  1.08E-01
   470 Broy./Diag. 0.10E+00    7.6     0.06819856       -79.4752413614  1.83E-01
   471 Broy./Diag. 0.10E+00    7.5     0.09804871       -79.4529984556  2.22E-02
   472 Broy./Diag. 0.10E+00    7.5     0.09964323       -79.3327740903  1.20E-01
   473 Broy./Diag. 0.10E+00    7.5     0.07815055       -79.4104053335 -7.76E-02
   474 Broy./Diag. 0.10E+00    7.6     0.08836509       -79.4437738112 -3.34E-02
   475 Broy./Diag. 0.10E+00    7.6     0.22604976       -79.4725917272 -2.88E-02
   476 Broy./Diag. 0.10E+00    7.6     0.33618673       -79.5369085462 -6.43E-02
   477 Broy./Diag. 0.10E+00    7.6     0.39681780       -79.4393295714  9.76E-02
   478 Broy./Diag. 0.10E+00    7.6     0.17401047       -79.2176319095  2.22E-01
   479 Broy./Diag. 0.10E+00    7.5     0.16405071       -79.4799519126 -2.62E-01
   480 Broy./Diag. 0.10E+00    7.6     0.16274953       -79.4999836453 -2.00E-02
   481 Broy./Diag. 0.10E+00    7.6     0.19782650       -79.4645242005  3.55E-02
   482 Broy./Diag. 0.10E+00    7.6     0.10532475       -79.3106753122  1.54E-01
   483 Broy./Diag. 0.10E+00    7.5     0.21339064       -79.4308024482 -1.20E-01
   484 Broy./Diag. 0.10E+00    7.5     0.22657915       -78.9948484360  4.36E-01
   485 Broy./Diag. 0.10E+00    7.6     0.20255567       -79.2258922126 -2.31E-01
   486 Broy./Diag. 0.10E+00    7.6     0.19928938       -79.7070346663 -4.81E-01
   487 Broy./Diag. 0.10E+00    7.6     0.28132629       -79.8452777910 -1.38E-01
   488 Broy./Diag. 0.10E+00    7.6     0.31635682       -79.1057802467  7.39E-01
   489 Broy./Diag. 0.10E+00    7.6     0.15272807       -78.7606027661  3.45E-01
   490 Broy./Diag. 0.10E+00    7.7     0.12992118       -78.9956577034 -2.35E-01
   491 Broy./Diag. 0.10E+00    7.6     0.10120173       -79.2036594404 -2.08E-01
   492 Broy./Diag. 0.10E+00    7.6     0.04655083       -79.2221221573 -1.85E-02
   493 Broy./Diag. 0.10E+00    7.7     0.04676359       -79.2414455595 -1.93E-02
   494 Broy./Diag. 0.10E+00    7.6     0.04245234       -79.3019288160 -6.05E-02
   495 Broy./Diag. 0.10E+00    7.5     0.04467256       -79.3621334076 -6.02E-02
   496 Broy./Diag. 0.10E+00    7.5     0.04065268       -79.4150757772 -5.29E-02
   497 Broy./Diag. 0.10E+00    7.6     0.04429856       -79.4521335842 -3.71E-02
   498 Broy./Diag. 0.10E+00    7.6     0.02754776       -79.4908811311 -3.87E-02
   499 Broy./Diag. 0.10E+00    7.6     0.03420263       -79.4966412305 -5.76E-03
   500 Broy./Diag. 0.10E+00    7.6     0.04584688       -79.4999371724 -3.30E-03

  Leaving inner SCF loop after reaching   500 steps.


  Electronic density on regular grids:         -8.4252391853        3.5747608147
  Core density on regular grids:               12.0000000000        0.0000000000
  Hard and soft densities (Lebedev):          -41.2778753422      -37.7073758498
  Total Rho_soft + Rho1_hard - Rho1_soft      -11.9957386776
  Total charge density (r-space):               0.0042613224
  Total Rho_soft + Rho0_soft (g-space):         0.0042612198

  Overlap energy of the core charge distribution:               0.00001993455823
  Self energy of the core charge distribution:                -64.05191455199152
  Core Hamiltonian energy:                                    -14.63957267568598
  Hartree energy:                                              16.84174006497920
  Exchange-correlation energy:                                 -2.78042504773027
  Hartree-Fock Exchange energy:                                -2.53325898011389

  GAPW| Exc from hard and soft atomic rho1:                    -5.29383398047334
  GAPW| local Eh = 1 center integrals:                         -7.04269193593322

  Total energy:                                               -79.49993717239079

 *******************************************************************************
 *   ___                                                                       *
 *  /   \                                                                      *
 * [ABORT]                                                                     *
 *  \___/     SCF run NOT converged. To continue the calculation regardless,   *
 *    |             please set the keyword IGNORE_CONVERGENCE_FAILURE.         *
 *  O/|                                                                        *
 * /| |                                                                        *
 * / \                                                            qs_scf.F:611 *
 *******************************************************************************


 ===== Routine Calling Stack ===== 

            3 scf_env_do_scf
            2 qs_energies
            1 CP2K

 *******************************************************************************
 *   ___                                                                       *
 *  /   \                                                                      *
 * [ABORT]                                                                     *
 *  \___/     SCF run NOT converged. To continue the calculation regardless,   *
 *    |             please set the keyword IGNORE_CONVERGENCE_FAILURE.         *
 *  O/|                                                                        *
 * /| |                                                                        *
 * / \                                                            qs_scf.F:611 *
 *******************************************************************************


 ===== Routine Calling Stack ===== 

            3 scf_env_do_scf
            2 qs_energies
            1 CP2K

 *******************************************************************************
 *   ___                                                                       *
 *  /   \                                                                      *
 * [ABORT]                                                                     *
 *  \___/     SCF run NOT converged. To continue the calculation regardless,   *
 *    |             please set the keyword IGNORE_CONVERGENCE_FAILURE.         *
 *  O/|                                                                        *
 * /| |                                                                        *
 * / \                                                            qs_scf.F:611 *
 *******************************************************************************


 ===== Routine Calling Stack ===== 

            3 scf_env_do_scf
            2 qs_energies
            1 CP2K

 *******************************************************************************
 *   ___                                                                       *
 *  /   \                                                                      *
 * [ABORT]                                                                     *
 *  \___/     SCF run NOT converged. To continue the calculation regardless,   *
 *    |             please set the keyword IGNORE_CONVERGENCE_FAILURE.         *
 *  O/|                                                                        *
 * /| |                                                                        *
 * / \                                                            qs_scf.F:611 *
 *******************************************************************************


 ===== Routine Calling Stack ===== 

            3 scf_env_do_scf
            2 qs_energies
            1 CP2K

 *******************************************************************************
 *   ___                                                                       *
 *  /   \                                                                      *
 * [ABORT]                                                                     *
 *  \___/     SCF run NOT converged. To continue the calculation regardless,   *
 *    |             please set the keyword IGNORE_CONVERGENCE_FAILURE.         *
 *  O/|                                                                        *
 * /| |                                                                        *
 * / \                                                            qs_scf.F:611 *
 *******************************************************************************


 ===== Routine Calling Stack ===== 

            3 scf_env_do_scf
            2 qs_energies
            1 CP2K

 *******************************************************************************
 *   ___                                                                       *
 *  /   \                                                                      *
 * [ABORT]                                                                     *
 *  \___/     SCF run NOT converged. To continue the calculation regardless,   *
 *    |             please set the keyword IGNORE_CONVERGENCE_FAILURE.         *
 *  O/|                                                                        *
 * /| |                                                                        *
 * / \                                                            qs_scf.F:611 *
 *******************************************************************************


 ===== Routine Calling Stack ===== 

            3 scf_env_do_scf
            2 qs_energies
            1 CP2K

 *******************************************************************************
 *   ___                                                                       *
 *  /   \                                                                      *
 * [ABORT]                                                                     *
 *  \___/     SCF run NOT converged. To continue the calculation regardless,   *
 *    |             please set the keyword IGNORE_CONVERGENCE_FAILURE.         *
 *  O/|                                                                        *
 * /| |                                                                        *
 * / \                                                            qs_scf.F:611 *
 *******************************************************************************


 ===== Routine Calling Stack ===== 

            3 scf_env_do_scf
            2 qs_energies
            1 CP2K

 *******************************************************************************
 *   ___                                                                       *
 *  /   \                                                                      *
 * [ABORT]                                                                     *
 *  \___/     SCF run NOT converged. To continue the calculation regardless,   *
 *    |             please set the keyword IGNORE_CONVERGENCE_FAILURE.         *
 *  O/|                                                                        *
 * /| |                                                                        *
 * / \                                                            qs_scf.F:611 *
 *******************************************************************************


 ===== Routine Calling Stack ===== 

            3 scf_env_do_scf
            2 qs_energies
            1 CP2K

 *******************************************************************************
 *   ___                                                                       *
 *  /   \                                                                      *
 * [ABORT]                                                                     *
 *  \___/     SCF run NOT converged. To continue the calculation regardless,   *
 *    |             please set the keyword IGNORE_CONVERGENCE_FAILURE.         *
 *  O/|                                                                        *
 * /| |                                                                        *
 * / \                                                            qs_scf.F:611 *
 *******************************************************************************


 ===== Routine Calling Stack ===== 

            3 scf_env_do_scf
            2 qs_energies
            1 CP2K

 *******************************************************************************
 *   ___                                                                       *
 *  /   \                                                                      *
 * [ABORT]                                                                     *
 *  \___/     SCF run NOT converged. To continue the calculation regardless,   *
 *    |             please set the keyword IGNORE_CONVERGENCE_FAILURE.         *
 *  O/|                                                                        *
 * /| |                                                                        *
 * / \                                                            qs_scf.F:611 *
 *******************************************************************************


 ===== Routine Calling Stack ===== 

            3 scf_env_do_scf
            2 qs_energies
            1 CP2K

 *******************************************************************************
 *   ___                                                                       *
 *  /   \                                                                      *
 * [ABORT]                                                                     *
 *  \___/     SCF run NOT converged. To continue the calculation regardless,   *
 *    |             please set the keyword IGNORE_CONVERGENCE_FAILURE.         *
 *  O/|                                                                        *
 * /| |                                                                        *
 * / \                                                            qs_scf.F:611 *
 *******************************************************************************


 ===== Routine Calling Stack ===== 

            3 scf_env_do_scf
            2 qs_energies
            1 CP2K

 *******************************************************************************
 *   ___                                                                       *
 *  /   \                                                                      *
 * [ABORT]                                                                     *
 *  \___/     SCF run NOT converged. To continue the calculation regardless,   *
 *    |             please set the keyword IGNORE_CONVERGENCE_FAILURE.         *
 *  O/|                                                                        *
 * /| |                                                                        *
 * / \                                                            qs_scf.F:611 *
 *******************************************************************************


 ===== Routine Calling Stack ===== 

            3 scf_env_do_scf
            2 qs_energies
            1 CP2K

 *******************************************************************************
 *   ___                                                                       *
 *  /   \                                                                      *
 * [ABORT]                                                                     *
 *  \___/     SCF run NOT converged. To continue the calculation regardless,   *
 *    |             please set the keyword IGNORE_CONVERGENCE_FAILURE.         *
 *  O/|                                                                        *
 * /| |                                                                        *
 * / \                                                            qs_scf.F:611 *
 *******************************************************************************


 ===== Routine Calling Stack ===== 

            3 scf_env_do_scf
            2 qs_energies
            1 CP2K
