 DBCSR| CPU Multiplication driver                                           BLAS (U)
 DBCSR| Multrec recursion limit                                              512 (U)
 DBCSR| Multiplication stack size                                           1000 (D)
 DBCSR| Maximum elements for images                                    UNLIMITED (U)
 DBCSR| Multiplicative factor virtual images                                   1 (U)
 DBCSR| Use multiplication densification                                       T (D)
 DBCSR| Multiplication size stacks                                             3 (U)
 DBCSR| Use memory pool for CPU allocation                                     F (U)
 DBCSR| Number of 3D layers                                               SINGLE (U)
 DBCSR| Use MPI memory allocation                                              F (U)
 DBCSR| Use RMA algorithm                                                      F (U)
 DBCSR| Use Communication thread                                               T (U)
 DBCSR| Communication thread load                                             75 (D)
 DBCSR| MPI: My process id                                                     0
 DBCSR| MPI: Number of processes                                              24
 DBCSR| OMP: Current number of threads                                         4
 DBCSR| OMP: Max number of threads                                             4
 DBCSR| Split modifier for TAS multiplication algorithm                  1.0E+00 (U)


  **** **** ******  **  PROGRAM STARTED AT               2025-03-15 01:37:03.013
 ***** ** ***  *** **   PROGRAM STARTED ON                          i01r03c06s06
 **    ****   ******    PROGRAM STARTED BY                               di38fab
 ***** **    ** ** **   PROGRAM PROCESS ID                               3708959
  **** **  *******  **  PROGRAM STARTED IN /hppfs/scratch/04/di38fab/05_MOL/W4-1
                                           1+ALK/b2/DZVP/GW+BSE/Np1

 CP2K| version string:                 CP2K version 2025.1 (Development Version)
 CP2K| source code revision number:                                  git:d2e611a
 CP2K| cp2kflags: omp libint fftw3 libxc parallel scalapack max_contr=4         
 CP2K| is freely available from                            https://www.cp2k.org/
 CP2K| Program compiled at                       Thu 06 Mar 2025 05:09:20 PM CET
 CP2K| Program compiled on                                               login02
 CP2K| Program compiled for                                        Supermuc-foss
 CP2K| Data directory path                  /hppfs/work/pn36zo/di38fab/cp2k/data
 CP2K| Input file name                                                    GW.inp

 GLOBAL| Force Environment number                                              1
 GLOBAL| Basis set file name            /hppfs/scratch/04/di38fab/04_TMD/BASIS_A
 GLOBAL| Potential file name            /hppfs/work/pn36zo/di38fab/cp2k/data/ALL
 GLOBAL| MM Potential file name                                     MM_POTENTIAL
 GLOBAL| Coordinate file name                                      __STD_INPUT__
 GLOBAL| Method name                                                        CP2K
 GLOBAL| Project name                                                       MoS2
 GLOBAL| Run type                                                         ENERGY
 GLOBAL| FFT library                                                       FFTW3
 GLOBAL| Diagonalization library                                       ScaLAPACK
 GLOBAL| DGEMM library                                                      BLAS
 GLOBAL| Orthonormality check for eigenvectors                          DISABLED
 GLOBAL| Matrix multiplication library                                 ScaLAPACK
 GLOBAL| All-to-all communication in single precision                          F
 GLOBAL| FFTs using library dependent lengths                                  F
 GLOBAL| Grid backend                                                       AUTO
 GLOBAL| Global print level                                               MEDIUM
 GLOBAL| MPI I/O enabled                                                       T
 GLOBAL| Total number of message passing processes                            24
 GLOBAL| Number of threads for this process                                    4
 GLOBAL| This output is from process                                           0
 GLOBAL| OpenMP stack size per thread (OMP_STACKSIZE)                    default
 GLOBAL| CPU model name             Intel(R) Xeon(R) Platinum 8174 CPU @ 3.10GHz

 MEMORY| system memory details [Kb]
 MEMORY|                        rank 0           min           max       average
 MEMORY| MemTotal             98436664      98436664      98436708      98436686
 MEMORY| MemFree              83945280      83799344      83945280      83872312
 MEMORY| Buffers                     0             0             0             0
 MEMORY| Cached                2398512       2387388       2398512       2392950
 MEMORY| Slab                  1227056       1227056       1241548       1234302
 MEMORY| SReclaimable           262464        262464        264096        263280
 MEMORY| MemLikelyFree        86606256      86450828      86606256      86528542


 *** Fundamental physical constants (SI units) ***

 *** Literature: B. J. Mohr and B. N. Taylor,
 ***             CODATA recommended values of the fundamental physical
 ***             constants: 2006, Web Version 5.1
 ***             http://physics.nist.gov/constants

 Speed of light in vacuum [m/s]                             2.99792458000000E+08
 Magnetic constant or permeability of vacuum [N/A**2]       1.25663706143592E-06
 Electric constant or permittivity of vacuum [F/m]          8.85418781762039E-12
 Planck constant (h) [J*s]                                  6.62606896000000E-34
 Planck constant (h-bar) [J*s]                              1.05457162825177E-34
 Elementary charge [C]                                      1.60217648700000E-19
 Electron mass [kg]                                         9.10938215000000E-31
 Electron g factor [ ]                                     -2.00231930436220E+00
 Proton mass [kg]                                           1.67262163700000E-27
 Fine-structure constant                                    7.29735253760000E-03
 Rydberg constant [1/m]                                     1.09737315685270E+07
 Avogadro constant [1/mol]                                  6.02214179000000E+23
 Boltzmann constant [J/K]                                   1.38065040000000E-23
 Atomic mass unit [kg]                                      1.66053878200000E-27
 Bohr radius [m]                                            5.29177208590000E-11

 *** Conversion factors ***

 [u] -> [a.u.]                                              1.82288848426455E+03
 [Angstrom] -> [Bohr] = [a.u.]                              1.88972613288564E+00
 [a.u.] = [Bohr] -> [Angstrom]                              5.29177208590000E-01
 [a.u.] -> [s]                                              2.41888432650478E-17
 [a.u.] -> [fs]                                             2.41888432650478E-02
 [a.u.] -> [J]                                              4.35974393937059E-18
 [a.u.] -> [N]                                              8.23872205491840E-08
 [a.u.] -> [K]                                              3.15774647902944E+05
 [a.u.] -> [kJ/mol]                                         2.62549961709828E+03
 [a.u.] -> [kcal/mol]                                       6.27509468713739E+02
 [a.u.] -> [Pa]                                             2.94210107994716E+13
 [a.u.] -> [bar]                                            2.94210107994716E+08
 [a.u.] -> [atm]                                            2.90362800883016E+08
 [a.u.] -> [eV]                                             2.72113838565563E+01
 [a.u.] -> [Hz]                                             6.57968392072181E+15
 [a.u.] -> [1/cm] (wave numbers)                            2.19474631370540E+05
 [a.u./Bohr**2] -> [1/cm]                                   5.14048714338585E+03
 

 CELL_TOP| Volume [angstrom^3]:                                     27000.000000
 CELL_TOP| Vector a [angstrom    30.000     0.000     0.000   |a| =    30.000000
 CELL_TOP| Vector b [angstrom     0.000    30.000     0.000   |b| =    30.000000
 CELL_TOP| Vector c [angstrom     0.000     0.000    30.000   |c| =    30.000000
 CELL_TOP| Angle (b,c), alpha [degree]:                                90.000000
 CELL_TOP| Angle (a,c), beta  [degree]:                                90.000000
 CELL_TOP| Angle (a,b), gamma [degree]:                                90.000000
 CELL_TOP| Numerically orthorhombic:                                         YES
 CELL_TOP| Periodicity                                                      NONE

 GENERATE|  Preliminary Number of Bonds generated:                             0
 GENERATE|  Achieved consistency in connectivity generation.

 CELL| Volume [angstrom^3]:                                         27000.000000
 CELL| Vector a [angstrom]:      30.000     0.000     0.000   |a| =    30.000000
 CELL| Vector b [angstrom]:       0.000    30.000     0.000   |b| =    30.000000
 CELL| Vector c [angstrom]:       0.000     0.000    30.000   |c| =    30.000000
 CELL| Angle (b,c), alpha [degree]:                                    90.000000
 CELL| Angle (a,c), beta  [degree]:                                    90.000000
 CELL| Angle (a,b), gamma [degree]:                                    90.000000
 CELL| Numerically orthorhombic:                                             YES
 CELL| Periodicity                                                          NONE

 CELL_REF| Volume [angstrom^3]:                                     27000.000000
 CELL_REF| Vector a [angstrom    30.000     0.000     0.000   |a| =    30.000000
 CELL_REF| Vector b [angstrom     0.000    30.000     0.000   |b| =    30.000000
 CELL_REF| Vector c [angstrom     0.000     0.000    30.000   |c| =    30.000000
 CELL_REF| Angle (b,c), alpha [degree]:                                90.000000
 CELL_REF| Angle (a,c), beta  [degree]:                                90.000000
 CELL_REF| Angle (a,b), gamma [degree]:                                90.000000
 CELL_REF| Numerically orthorhombic:                                         YES
 CELL_REF| Periodicity                                                      NONE

 *******************************************************************************
 *******************************************************************************
 **                                                                           **
 **     #####                         ##              ##                      **
 **    ##   ##            ##          ##              ##                      **
 **   ##     ##                       ##            ######                    **
 **   ##     ##  ##   ##  ##   #####  ##  ##   ####   ##    #####    #####    **
 **   ##     ##  ##   ##  ##  ##      ## ##   ##      ##   ##   ##  ##   ##   **
 **   ##  ## ##  ##   ##  ##  ##      ####     ###    ##   ######   ######    **
 **    ##  ###   ##   ##  ##  ##      ## ##      ##   ##   ##       ##        **
 **     #######   #####   ##   #####  ##  ##  ####    ##    #####   ##        **
 **           ##                                                    ##        **
 **                                                                           **
 **                                                ... make the atoms dance   **
 **                                                                           **
 **            Copyright (C) by CP2K developers group (2000-2025)             **
 **                      J. Chem. Phys. 152, 194103 (2020)                    **
 **                                                                           **
 *******************************************************************************

 DFT| Spin restricted Kohn-Sham (RKS) calculation                            RKS
 DFT| Multiplicity                                                             1
 DFT| Number of spin states                                                    1
 DFT| Charge                                                                   0
 DFT| Self-interaction correction (SIC)                                       NO
 DFT| Cutoffs: density                                              1.000000E-10
 DFT|          gradient                                             1.000000E-10
 DFT|          tau                                                  1.000000E-10
 DFT|          cutoff_smoothing_range                               0.000000E+00
 DFT| XC density smoothing                                                  NONE
 DFT| XC derivatives                                                          PW

 FUNCTIONAL| PBE:
 FUNCTIONAL| J.P.Perdew, K.Burke, M.Ernzerhof, Phys. Rev. Letter, vol. 77, n 18,
 FUNCTIONAL|  pp. 3865-3868, (1996)sx=0.750sc=1.000{spin unpolarized}           


 QS| Method:                                                                GAPW
 QS| Density plane wave grid type                        NON-SPHERICAL FULLSPACE
 QS| Number of grid levels:                                                    4
 QS| Density cutoff [a.u.]:                                                250.0
 QS| Multi grid cutoff [a.u.]: 1) grid level                               250.0
 QS|                           2) grid level                                83.3
 QS|                           3) grid level                                27.8
 QS|                           4) grid level                                 9.3
 QS| Grid level progression factor:                                          3.0
 QS| Relative density cutoff [a.u.]:                                        50.0
 QS| Interaction thresholds: eps_pgf_orb:                                1.0E-12
 QS|                         eps_filter_matrix:                          0.0E+00
 QS|                         eps_core_charge:                            1.0E-14
 QS|                         eps_rho_gspace:                             1.0E-12
 QS|                         eps_rho_rspace:                             1.0E-12
 QS|                         eps_gvg_rspace:                             1.0E-06
 QS|                         eps_ppl:                                    1.0E-02
 QS|                         eps_ppnl:                                   1.0E-08
 QS| GAPW|      One center basis from orbital basis primitives
 QS| GAPW|                   eps_fit:                                    1.0E-04
 QS| GAPW|                   eps_iso:                                    1.0E-12
 QS| GAPW|                   eps_svd:                                    1.0E-08
 QS| GAPW|                   eps_cpc:                                    1.0E-12
 QS| GAPW|   atom-r-grid: quadrature:                                     GC_LOG
 QS| GAPW|      atom-s-grid:  max l :                                          6
 QS| GAPW|      max_l_rho0 :                                                   2


 ATOMIC KIND INFORMATION

  1. Atomic kind: B                                     Number of atoms:       2

     Orbital Basis Set                                        aug-DZVP-MOLOPT-ae

       Number of orbital shell sets:                                           2
       Number of orbital shells:                                              10
       Number of primitive Cartesian functions:                               12
       Number of Cartesian basis functions:                                   35
       Number of spherical basis functions:                                   30
       Norm type:                                                              2

       Normalised Cartesian orbitals:

                        Set   Shell   Orbital            Exponent    Coefficient

                          1       1    2s                0.082134       0.085473
                                                         0.140000       0.049675
                                                         0.279625      -0.030750
                                                         0.881274       0.022030
                                                         4.510873       0.000000

                          1       2    3px               0.082134      -0.004879
                                                         0.140000       0.000000
                                                         0.279625      -0.151722
                                                         0.881274      -0.583957
                                                         4.510873      -1.036243
                          1       2    3py               0.082134      -0.004879
                                                         0.140000       0.000000
                                                         0.279625      -0.151722
                                                         0.881274      -0.583957
                                                         4.510873      -1.036243
                          1       2    3pz               0.082134      -0.004879
                                                         0.140000       0.000000
                                                         0.279625      -0.151722
                                                         0.881274      -0.583957
                                                         4.510873      -1.036243

                          1       3    4px               0.082134       0.052233
                                                         0.140000       0.000000
                                                         0.279625       0.094300
                                                         0.881274      -0.581323
                                                         4.510873      -0.510604
                          1       3    4py               0.082134       0.052233
                                                         0.140000       0.000000
                                                         0.279625       0.094300
                                                         0.881274      -0.581323
                                                         4.510873      -0.510604
                          1       3    4pz               0.082134       0.052233
                                                         0.140000       0.000000
                                                         0.279625       0.094300
                                                         0.881274      -0.581323
                                                         4.510873      -0.510604

                          1       4    5px               0.082134       0.024659
                                                         0.140000       0.076570
                                                         0.279625      -0.053289
                                                         0.881274       0.410720
                                                         4.510873       0.000000
                          1       4    5py               0.082134       0.024659
                                                         0.140000       0.076570
                                                         0.279625      -0.053289
                                                         0.881274       0.410720
                                                         4.510873       0.000000
                          1       4    5pz               0.082134       0.024659
                                                         0.140000       0.076570
                                                         0.279625      -0.053289
                                                         0.881274       0.410720
                                                         4.510873       0.000000

                          1       5    4dx2              0.082134       0.000404
                                                         0.140000       0.000000
                                                         0.279625       0.111576
                                                         0.881274       0.641739
                                                         4.510873      -0.272354
                          1       5    4dxy              0.082134       0.000700
                                                         0.140000       0.000000
                                                         0.279625       0.193255
                                                         0.881274       1.111524
                                                         4.510873      -0.471731
                          1       5    4dxz              0.082134       0.000700
                                                         0.140000       0.000000
                                                         0.279625       0.193255
                                                         0.881274       1.111524
                                                         4.510873      -0.471731
                          1       5    4dy2              0.082134       0.000404
                                                         0.140000       0.000000
                                                         0.279625       0.111576
                                                         0.881274       0.641739
                                                         4.510873      -0.272354
                          1       5    4dyz              0.082134       0.000700
                                                         0.140000       0.000000
                                                         0.279625       0.193255
                                                         0.881274       1.111524
                                                         4.510873      -0.471731
                          1       5    4dz2              0.082134       0.000404
                                                         0.140000       0.000000
                                                         0.279625       0.111576
                                                         0.881274       0.641739
                                                         4.510873      -0.272354

                          1       6    5dx2              0.082134       0.036596
                                                         0.140000      -0.054919
                                                         0.279625      -0.008802
                                                         0.881274      -0.232953
                                                         4.510873       0.000000
                          1       6    5dxy              0.082134       0.063387
                                                         0.140000      -0.095122
                                                         0.279625      -0.015246
                                                         0.881274      -0.403486
                                                         4.510873       0.000000
                          1       6    5dxz              0.082134       0.063387
                                                         0.140000      -0.095122
                                                         0.279625      -0.015246
                                                         0.881274      -0.403486
                                                         4.510873       0.000000
                          1       6    5dy2              0.082134       0.036596
                                                         0.140000      -0.054919
                                                         0.279625      -0.008802
                                                         0.881274      -0.232953
                                                         4.510873       0.000000
                          1       6    5dyz              0.082134       0.063387
                                                         0.140000      -0.095122
                                                         0.279625      -0.015246
                                                         0.881274      -0.403486
                                                         4.510873       0.000000
                          1       6    5dz2              0.082134       0.036596
                                                         0.140000      -0.054919
                                                         0.279625      -0.008802
                                                         0.881274      -0.232953
                                                         4.510873       0.000000

                          1       7    5fx3              0.082134      -0.000468
                                                         0.140000       0.012301
                                                         0.279625       0.033988
                                                         0.881274       0.068820
                                                         4.510873       0.000000
                          1       7    5fx2y             0.082134      -0.001048
                                                         0.140000       0.027506
                                                         0.279625       0.075998
                                                         0.881274       0.153886
                                                         4.510873       0.000000
                          1       7    5fx2z             0.082134      -0.001048
                                                         0.140000       0.027506
                                                         0.279625       0.075998
                                                         0.881274       0.153886
                                                         4.510873       0.000000
                          1       7    5fxy2             0.082134      -0.001048
                                                         0.140000       0.027506
                                                         0.279625       0.075998
                                                         0.881274       0.153886
                                                         4.510873       0.000000
                          1       7    5fxyz             0.082134      -0.001814
                                                         0.140000       0.047643
                                                         0.279625       0.131633
                                                         0.881274       0.266539
                                                         4.510873       0.000000
                          1       7    5fxz2             0.082134      -0.001048
                                                         0.140000       0.027506
                                                         0.279625       0.075998
                                                         0.881274       0.153886
                                                         4.510873       0.000000
                          1       7    5fy3              0.082134      -0.000468
                                                         0.140000       0.012301
                                                         0.279625       0.033988
                                                         0.881274       0.068820
                                                         4.510873       0.000000
                          1       7    5fy2z             0.082134      -0.001048
                                                         0.140000       0.027506
                                                         0.279625       0.075998
                                                         0.881274       0.153886
                                                         4.510873       0.000000
                          1       7    5fyz2             0.082134      -0.001048
                                                         0.140000       0.027506
                                                         0.279625       0.075998
                                                         0.881274       0.153886
                                                         4.510873       0.000000
                          1       7    5fz3              0.082134      -0.000468
                                                         0.140000       0.012301
                                                         0.279625       0.033988
                                                         0.881274       0.068820
                                                         4.510873       0.000000

                          2       1    1s              839.324562      -0.573042
                                                       126.174643      -1.097170
                                                        28.339532      -1.625259
                                                         7.329111      -1.470436
                                                         2.208031      -0.468381
                                                         0.410209      -0.026981
                                                         0.151694      -0.023850

                          2       2    2s              839.324562       0.050684
                                                       126.174643      -0.115654
                                                        28.339532      -0.168560
                                                         7.329111      -0.289389
                                                         2.208031      -0.246292
                                                         0.410209       0.238157
                                                         0.151694       0.084355

                          2       3    3s              839.324562      -2.590681
                                                       126.174643       0.127370
                                                        28.339532      -1.260776
                                                         7.329111      -0.567183
                                                         2.208031      -0.073452
                                                         0.410209      -0.458063
                                                         0.151694       0.280188

     RI Auxiliary Basis Set             RI_aug-DZVP-MOLOPT-ae_N_RI_045_s_p_d_f_g

       Number of orbital shell sets:                                          15
       Number of orbital shells:                                              15
       Number of primitive Cartesian functions:                               15
       Number of Cartesian basis functions:                                   53
       Number of spherical basis functions:                                   45
       Norm type:                                                              2

       Normalised Cartesian orbitals:

                        Set   Shell   Orbital            Exponent    Coefficient

                          1       1   12dx2              0.161461       0.067691
                          1       1   12dxy              0.161461       0.117243
                          1       1   12dxz              0.161461       0.117243
                          1       1   12dy2              0.161461       0.067691
                          1       1   12dyz              0.161461       0.117243
                          1       1   12dz2              0.161461       0.067691

                          2       1    1s                0.171870       0.190244

                          3       1    7px               0.228223       0.224848
                          3       1    7py               0.228223       0.224848
                          3       1    7pz               0.228223       0.224848

                          4       1   14fx3              0.342259       0.131903
                          4       1   14fx2y             0.342259       0.294944
                          4       1   14fx2z             0.342259       0.294944
                          4       1   14fxy2             0.342259       0.294944
                          4       1   14fxyz             0.342259       0.510857
                          4       1   14fxz2             0.342259       0.294944
                          4       1   14fy3              0.342259       0.131903
                          4       1   14fy2z             0.342259       0.294944
                          4       1   14fyz2             0.342259       0.294944
                          4       1   14fz3              0.342259       0.131903

                          5       1    2s                0.348083       0.322977

                          6       1    8px               0.469590       0.554100
                          6       1    8py               0.469590       0.554100
                          6       1    8pz               0.469590       0.554100

                          7       1   13dx2              0.772696       1.048154
                          7       1   13dxy              0.772696       1.815456
                          7       1   13dxz              0.772696       1.815456
                          7       1   13dy2              0.772696       1.048154
                          7       1   13dyz              0.772696       1.815456
                          7       1   13dz2              0.772696       1.048154

                          8       1    3s                1.064894       0.747119

                          9       1    9px               1.361014       2.095406
                          9       1    9py               1.361014       2.095406
                          9       1    9pz               1.361014       2.095406

                         10       1   15fx3              1.546815       3.928174
                         10       1   15fx2y             1.546815       8.783664
                         10       1   15fx2z             1.546815       8.783664
                         10       1   15fxy2             1.546815       8.783664
                         10       1   15fxyz             1.546815      15.213752
                         10       1   15fxz2             1.546815       8.783664
                         10       1   15fy3              1.546815       3.928174
                         10       1   15fy2z             1.546815       8.783664
                         10       1   15fyz2             1.546815       8.783664
                         10       1   15fz3              1.546815       3.928174

                         11       1    4s                3.883983       1.971824

                         12       1   10px               4.002321       8.069192
                         12       1   10py               4.002321       8.069192
                         12       1   10pz               4.002321       8.069192

                         13       1   11px              12.201965      32.507030
                         13       1   11py              12.201965      32.507030
                         13       1   11pz              12.201965      32.507030

                         14       1    5s               13.736681       5.085357

                         15       1    6s               47.445203      12.884107

       Atomic covalent radius [Angstrom]:                                  0.820

       Atomic van der Waals radius [Angstrom]:                             1.920

     The atoms of this atomic kind are PAW atoms (GAPW):
       Hard Gaussian function radius:                                      1.512
       Rho0 radius:                                                        1.512
       Maximum GTO radius used for PAW projector construction:            24.566

     GAPW Soft Basis Set                                 aug-DZVP-MOLOPT-ae_soft

       Number of orbital shell sets:                                           2
       Number of orbital shells:                                              10
       Number of primitive Cartesian functions:                                8
       Number of Cartesian basis functions:                                   35
       Number of spherical basis functions:                                   30
       Norm type:                                                              2

       Normalised Cartesian orbitals:

                        Set   Shell   Orbital            Exponent    Coefficient

                          1       1    2s                0.082134       0.085473
                                                         0.140000       0.049675
                                                         0.279625      -0.030750
                                                         0.881274       0.022030
                                                         4.510873       0.000000

                          1       2    3px               0.082134      -0.004879
                                                         0.140000       0.000000
                                                         0.279625      -0.151722
                                                         0.881274      -0.583957
                                                         4.510873       0.000000
                          1       2    3py               0.082134      -0.004879
                                                         0.140000       0.000000
                                                         0.279625      -0.151722
                                                         0.881274      -0.583957
                                                         4.510873       0.000000
                          1       2    3pz               0.082134      -0.004879
                                                         0.140000       0.000000
                                                         0.279625      -0.151722
                                                         0.881274      -0.583957
                                                         4.510873       0.000000

                          1       3    4px               0.082134       0.052233
                                                         0.140000       0.000000
                                                         0.279625       0.094300
                                                         0.881274      -0.581323
                                                         4.510873       0.000000
                          1       3    4py               0.082134       0.052233
                                                         0.140000       0.000000
                                                         0.279625       0.094300
                                                         0.881274      -0.581323
                                                         4.510873       0.000000
                          1       3    4pz               0.082134       0.052233
                                                         0.140000       0.000000
                                                         0.279625       0.094300
                                                         0.881274      -0.581323
                                                         4.510873       0.000000

                          1       4    5px               0.082134       0.024659
                                                         0.140000       0.076570
                                                         0.279625      -0.053289
                                                         0.881274       0.410720
                                                         4.510873       0.000000
                          1       4    5py               0.082134       0.024659
                                                         0.140000       0.076570
                                                         0.279625      -0.053289
                                                         0.881274       0.410720
                                                         4.510873       0.000000
                          1       4    5pz               0.082134       0.024659
                                                         0.140000       0.076570
                                                         0.279625      -0.053289
                                                         0.881274       0.410720
                                                         4.510873       0.000000

                          1       5    4dx2              0.082134       0.000404
                                                         0.140000       0.000000
                                                         0.279625       0.111576
                                                         0.881274       0.641739
                                                         4.510873       0.000000
                          1       5    4dxy              0.082134       0.000700
                                                         0.140000       0.000000
                                                         0.279625       0.193255
                                                         0.881274       1.111524
                                                         4.510873       0.000000
                          1       5    4dxz              0.082134       0.000700
                                                         0.140000       0.000000
                                                         0.279625       0.193255
                                                         0.881274       1.111524
                                                         4.510873       0.000000
                          1       5    4dy2              0.082134       0.000404
                                                         0.140000       0.000000
                                                         0.279625       0.111576
                                                         0.881274       0.641739
                                                         4.510873       0.000000
                          1       5    4dyz              0.082134       0.000700
                                                         0.140000       0.000000
                                                         0.279625       0.193255
                                                         0.881274       1.111524
                                                         4.510873       0.000000
                          1       5    4dz2              0.082134       0.000404
                                                         0.140000       0.000000
                                                         0.279625       0.111576
                                                         0.881274       0.641739
                                                         4.510873       0.000000

                          1       6    5dx2              0.082134       0.036596
                                                         0.140000      -0.054919
                                                         0.279625      -0.008802
                                                         0.881274      -0.232953
                                                         4.510873       0.000000
                          1       6    5dxy              0.082134       0.063387
                                                         0.140000      -0.095122
                                                         0.279625      -0.015246
                                                         0.881274      -0.403486
                                                         4.510873       0.000000
                          1       6    5dxz              0.082134       0.063387
                                                         0.140000      -0.095122
                                                         0.279625      -0.015246
                                                         0.881274      -0.403486
                                                         4.510873       0.000000
                          1       6    5dy2              0.082134       0.036596
                                                         0.140000      -0.054919
                                                         0.279625      -0.008802
                                                         0.881274      -0.232953
                                                         4.510873       0.000000
                          1       6    5dyz              0.082134       0.063387
                                                         0.140000      -0.095122
                                                         0.279625      -0.015246
                                                         0.881274      -0.403486
                                                         4.510873       0.000000
                          1       6    5dz2              0.082134       0.036596
                                                         0.140000      -0.054919
                                                         0.279625      -0.008802
                                                         0.881274      -0.232953
                                                         4.510873       0.000000

                          1       7    5fx3              0.082134      -0.000468
                                                         0.140000       0.012301
                                                         0.279625       0.033988
                                                         0.881274       0.068820
                                                         4.510873       0.000000
                          1       7    5fx2y             0.082134      -0.001048
                                                         0.140000       0.027506
                                                         0.279625       0.075998
                                                         0.881274       0.153886
                                                         4.510873       0.000000
                          1       7    5fx2z             0.082134      -0.001048
                                                         0.140000       0.027506
                                                         0.279625       0.075998
                                                         0.881274       0.153886
                                                         4.510873       0.000000
                          1       7    5fxy2             0.082134      -0.001048
                                                         0.140000       0.027506
                                                         0.279625       0.075998
                                                         0.881274       0.153886
                                                         4.510873       0.000000
                          1       7    5fxyz             0.082134      -0.001814
                                                         0.140000       0.047643
                                                         0.279625       0.131633
                                                         0.881274       0.266539
                                                         4.510873       0.000000
                          1       7    5fxz2             0.082134      -0.001048
                                                         0.140000       0.027506
                                                         0.279625       0.075998
                                                         0.881274       0.153886
                                                         4.510873       0.000000
                          1       7    5fy3              0.082134      -0.000468
                                                         0.140000       0.012301
                                                         0.279625       0.033988
                                                         0.881274       0.068820
                                                         4.510873       0.000000
                          1       7    5fy2z             0.082134      -0.001048
                                                         0.140000       0.027506
                                                         0.279625       0.075998
                                                         0.881274       0.153886
                                                         4.510873       0.000000
                          1       7    5fyz2             0.082134      -0.001048
                                                         0.140000       0.027506
                                                         0.279625       0.075998
                                                         0.881274       0.153886
                                                         4.510873       0.000000
                          1       7    5fz3              0.082134      -0.000468
                                                         0.140000       0.012301
                                                         0.279625       0.033988
                                                         0.881274       0.068820
                                                         4.510873       0.000000

                          2       1    1s                2.208031      -0.468381
                                                         0.410209      -0.026981
                                                         0.151694      -0.023850

                          2       2    2s                2.208031      -0.246292
                                                         0.410209       0.238157
                                                         0.151694       0.084355

                          2       3    3s                2.208031      -0.073452
                                                         0.410209      -0.458063
                                                         0.151694       0.280188

     AE Potential information for                                            ALL

       Description:                                       All-electron potential
                                          Krack, Parrinello, PCCP 2, 2105 (2000)

       Gaussian exponent of the core charge distribution:               2.655410
       Electronic configuration (s p d ...):                           4   1   0


 MOLECULE KIND INFORMATION


 All atoms are their own molecule, skipping detailed information


 TOTAL NUMBERS AND MAXIMUM NUMBERS

  Total number of            - Atomic kinds:                                   1
                             - Atoms:                                          2
                             - Shell sets:                                     4
                             - Shells:                                        20
                             - Primitive Cartesian functions:                 24
                             - Cartesian basis functions:                     70
                             - Spherical basis functions:                     60

  Maximum angular momentum of the orbital basis functions:                     3


 MODULE QUICKSTEP: ATOMIC COORDINATES IN ANGSTROM

   Atom Kind Element         X             Y             Z       Z(eff)     Mass
      1    1 B     5     15.793777     15.000000     15.000000   5.0000  10.8110
      2    1 B     5     14.206223     15.000000     15.000000   5.0000  10.8110



 SCF PARAMETERS         Density guess:                                    ATOMIC
                        --------------------------------------------------------
                        max_scf:                                             500
                        max_scf_history:                                       0
                        max_diis:                                              4
                        --------------------------------------------------------
                        eps_scf:                                        1.00E-06
                        eps_scf_history:                                0.00E+00
                        eps_diis:                                       1.00E-01
                        eps_eigval:                                     1.00E-05
                        --------------------------------------------------------
                        level_shift [a.u.]:                             0.000000
                        added MOs                                        55    0
                        --------------------------------------------------------
                        Mixing method:                            BROYDEN_MIXING
                                                charge density mixing in g-space
                        --------------------------------------------------------
                        No outer SCF

 PW_GRID| Information for grid number                                          1
 PW_GRID| Grid distributed over                                    24 processors
 PW_GRID| Real space group dimensions                                    24    1
 PW_GRID| the grid is blocked:                                                NO
 PW_GRID| Cutoff [a.u.]                                                    250.0
 PW_GRID| spherical cutoff:                                                   NO
 PW_GRID|   Bounds   1           -202     202                Points:         405
 PW_GRID|   Bounds   2           -202     202                Points:         405
 PW_GRID|   Bounds   3           -202     202                Points:         405
 PW_GRID| Volume element (a.u.^3)  0.2743E-02     Volume (a.u.^3)    182205.0337
 PW_GRID| Grid span                                                    FULLSPACE
 PW_GRID|   Distribution                         Average         Max         Min
 PW_GRID|   G-Vectors                          2767921.9     2768175     2767770
 PW_GRID|   G-Rays                                6834.4        6835        6834
 PW_GRID|   Real Space Points                  2767921.9     2788425     2624400

 PW_GRID| Information for grid number                                          2
 PW_GRID| Number of the reference grid                                         1
 PW_GRID| Grid distributed over                                    24 processors
 PW_GRID| Real space group dimensions                                    24    1
 PW_GRID| the grid is blocked:                                                NO
 PW_GRID| Cutoff [a.u.]                                                     83.3
 PW_GRID| spherical cutoff:                                                   NO
 PW_GRID|   Bounds   1           -120     119                Points:         240
 PW_GRID|   Bounds   2           -120     119                Points:         240
 PW_GRID|   Bounds   3           -120     119                Points:         240
 PW_GRID| Volume element (a.u.^3)  0.1318E-01     Volume (a.u.^3)    182205.0337
 PW_GRID| Grid span                                                    FULLSPACE
 PW_GRID|   Distribution                         Average         Max         Min
 PW_GRID|   G-Vectors                           576000.0      576240      575760
 PW_GRID|   G-Rays                                2400.0        2401        2399
 PW_GRID|   Real Space Points                   576000.0      576000      576000

 PW_GRID| Information for grid number                                          3
 PW_GRID| Number of the reference grid                                         1
 PW_GRID| Grid distributed over                                    24 processors
 PW_GRID| Real space group dimensions                                    24    1
 PW_GRID| the grid is blocked:                                                NO
 PW_GRID| Cutoff [a.u.]                                                     27.8
 PW_GRID| spherical cutoff:                                                   NO
 PW_GRID|   Bounds   1            -67      67                Points:         135
 PW_GRID|   Bounds   2            -67      67                Points:         135
 PW_GRID|   Bounds   3            -67      67                Points:         135
 PW_GRID| Volume element (a.u.^3)  0.7406E-01     Volume (a.u.^3)    182205.0337
 PW_GRID| Grid span                                                    FULLSPACE
 PW_GRID|   Distribution                         Average         Max         Min
 PW_GRID|   G-Vectors                           102515.6      102735      102330
 PW_GRID|   G-Rays                                 759.4         761         758
 PW_GRID|   Real Space Points                   102515.6      109350       91125

 PW_GRID| Information for grid number                                          4
 PW_GRID| Number of the reference grid                                         1
 PW_GRID| Grid distributed over                                    24 processors
 PW_GRID| Real space group dimensions                                    24    1
 PW_GRID| the grid is blocked:                                                NO
 PW_GRID| Cutoff [a.u.]                                                      9.3
 PW_GRID| spherical cutoff:                                                   NO
 PW_GRID|   Bounds   1            -40      39                Points:          80
 PW_GRID|   Bounds   2            -40      39                Points:          80
 PW_GRID|   Bounds   3            -40      39                Points:          80
 PW_GRID| Volume element (a.u.^3)  0.3559         Volume (a.u.^3)    182205.0337
 PW_GRID| Grid span                                                    FULLSPACE
 PW_GRID|   Distribution                         Average         Max         Min
 PW_GRID|   G-Vectors                            21333.3       21360       21280
 PW_GRID|   G-Rays                                 266.7         267         266
 PW_GRID|   Real Space Points                    21333.3       25600       19200

 POISSON| Solver                                                         WAVELET
 POISSON| Wavelet| Scaling function                                           40
 POISSON| Periodicity                                                       NONE

 RS_GRID| Information for grid number                                          1
 RS_GRID|   Bounds   1           -202     202                Points:         405
 RS_GRID|   Bounds   2           -202     202                Points:         405
 RS_GRID|   Bounds   3           -202     202                Points:         405
 RS_GRID| Real space distribution over                                  4 groups
 RS_GRID| Real space distribution along direction                              2
 RS_GRID| Border size                                                         36
 RS_GRID| Real space distribution over                                  6 groups
 RS_GRID| Real space distribution along direction                              3
 RS_GRID| Border size                                                         36
 RS_GRID|   Distribution                         Average         Max         Min
 RS_GRID|   Planes                                 173.2         174         173
 RS_GRID|   Distribution                         Average         Max         Min
 RS_GRID|   Planes                                 139.5         140         139

 RS_GRID| Information for grid number                                          2
 RS_GRID|   Bounds   1           -120     119                Points:         240
 RS_GRID|   Bounds   2           -120     119                Points:         240
 RS_GRID|   Bounds   3           -120     119                Points:         240
 RS_GRID| Real space distribution over                                  4 groups
 RS_GRID| Real space distribution along direction                              2
 RS_GRID| Border size                                                         39
 RS_GRID| Real space distribution over                                  6 groups
 RS_GRID| Real space distribution along direction                              3
 RS_GRID| Border size                                                         39
 RS_GRID|   Distribution                         Average         Max         Min
 RS_GRID|   Planes                                 138.0         138         138
 RS_GRID|   Distribution                         Average         Max         Min
 RS_GRID|   Planes                                 118.0         118         118

 RS_GRID| Information for grid number                                          3
 RS_GRID|   Bounds   1            -67      67                Points:         135
 RS_GRID|   Bounds   2            -67      67                Points:         135
 RS_GRID|   Bounds   3            -67      67                Points:         135
 RS_GRID| Real space fully replicated
 RS_GRID| Group size                                                           1

 RS_GRID| Information for grid number                                          4
 RS_GRID|   Bounds   1            -40      39                Points:          80
 RS_GRID|   Bounds   2            -40      39                Points:          80
 RS_GRID|   Bounds   3            -40      39                Points:          80
 RS_GRID| Real space fully replicated
 RS_GRID| Group size                                                           1

  HFX_INFO| Replica ID:                                                        1
  HFX_INFO| FRACTION:                                               0.2500000000
  HFX_INFO| Interaction Potential:                                       COULOMB
  HFX_INFO| EPS_SCHWARZ:                                                 1.0E-10
  HFX_INFO| EPS_SCHWARZ_FORCES                                           1.0E-08
  HFX_INFO| EPS_STORAGE_SCALING:                                         1.0E+00
  HFX_INFO| NBINS:                                                            64
  HFX_INFO| BLOCK_SIZE:                                                        1
  HFX_INFO| Number of periodic shells considered:                           NONE
  HFX_INFO| Number of periodic cells considered:                            NONE

 
 RI-RPA| using GPW style
 

 OVERLAP MATRIX CONDITION NUMBER
 1-Norm Condition Number (Estimate)
   CN : |A|*|A^-1|:  6.628E+000 *  1.761E+003   = 1.167E+004  Log(1-CN):  4.0672
 1-Norm and 2-Norm Condition Numbers using Diagonalization
   CN : |A|*|A^-1|:  6.628E+000 *  1.761E+003   = 1.167E+004  Log(1-CN):  4.0672
   CN : max/min ev:  4.513E+000 /  9.591E-004   = 4.706E+003  Log(2-CN):  3.6726

 Number of electrons:                                                         10
 Number of occupied orbitals:                                                  5
 Number of molecular orbitals:                                                60

 Number of orbital functions:                                                 60
 Number of independent orbital functions:                                     60

 Extrapolation method: initial_guess

 Atomic guess: The first density matrix is obtained in terms of atomic orbitals
               and electronic configurations assigned to each atomic kind

 Guess for atomic kind: B

 Electronic structure
    Total number of core electrons                                          0.00
    Total number of valence electrons                                       5.00
    Total number of electrons                                               5.00
    Multiplicity                                                   not specified
    S      2.00  2.00
    P      1.00


 *******************************************************************************
                  Iteration          Convergence                     Energy [au]
 *******************************************************************************
                          1        0.478540E-01                 -24.326455422583
                          2        0.230834E-01                 -24.328419827544
                          3        0.809223E-03                 -24.329078639833
                          4        0.575629E-06                 -24.329079411789

 Energy components [Hartree]           Total Energy ::          -24.329079411789
                                        Band Energy ::          -13.899544962659
                                     Kinetic Energy ::           24.474308884861
                                   Potential Energy ::          -48.803388296650
                                      Virial (-V/T) ::            1.994066043958
                                        Core Energy ::          -32.336650665617
                                          XC Energy ::           -3.541518263746
                                     Coulomb Energy ::           11.549089517574

 Orbital energies  State     L     Occupation   Energy[a.u.]          Energy[eV]

                       1     0          2.000      -6.542413         -178.028103
                       2     0          2.000      -0.341450           -9.291315

                       1     1          1.000      -0.131820           -3.587017


 Total Electron Density at R=0:                                        66.326855
 Re-scaling the density matrix to get the right number of electrons
                  # Electrons              Trace(P)               Scaling factor
                           10                10.000                        1.000


 SCF WAVEFUNCTION OPTIMIZATION

  Step     Update method      Time    Convergence         Total energy    Change
  ------------------------------------------------------------------------------

  HFX_MEM_INFO| Est. max. program size before HFX [MiB]:                    2172
  HFX_MEM_INFO| Number of cart. primitive ERI's calculated:            780567514
  HFX_MEM_INFO| Number of sph. ERI's calculated:                         4860000
  HFX_MEM_INFO| Number of sph. ERI's stored in-core:                     4860000
  HFX_MEM_INFO| Number of sph. ERI's stored on disk:                           0
  HFX_MEM_INFO| Number of sph. ERI's calculated on the fly:                    0
  HFX_MEM_INFO| Total memory consumption ERI's RAM [MiB]:                     21
  HFX_MEM_INFO| Whereof max-vals [MiB]:                                        1
  HFX_MEM_INFO| Total compression factor ERI's RAM:                         1.82
  HFX_MEM_INFO| Total memory consumption ERI's disk [MiB]:                     0
  HFX_MEM_INFO| Total compression factor ERI's disk:                        0.00
  HFX_MEM_INFO| Size of density/Fock matrix [MiB]:                             0
  HFX_MEM_INFO| Size of buffers [MiB]:                                        16
  HFX_MEM_INFO| Est. max. program size after HFX  [MiB]:                    2714

     1 NoMix/Diag. 0.10E+00   19.3     0.44020447       -49.4361328135 -4.94E+01
     2 Broy./Diag. 0.10E+00    4.8     0.02831792       -49.1803433501  2.56E-01
     3 Broy./Diag. 0.10E+00    5.1     0.01366347       -49.1140563212  6.63E-02
     4 Broy./Diag. 0.10E+00    4.9     0.06299754       -49.1136457798  4.11E-04
     5 Broy./Diag. 0.10E+00    4.9     0.00987908       -49.2161500367 -1.03E-01
     6 Broy./Diag. 0.10E+00    5.0     0.01550570       -49.2513164938 -3.52E-02
     7 Broy./Diag. 0.10E+00    5.0     0.00474529       -49.2807913440 -2.95E-02
     8 Broy./Diag. 0.10E+00    5.1     0.00045068       -49.2818886059 -1.10E-03
     9 Broy./Diag. 0.10E+00    5.3     0.00388171       -49.2761130898  5.78E-03
    10 Broy./Diag. 0.10E+00    5.4     0.00086156       -49.2709170699  5.20E-03
    11 Broy./Diag. 0.10E+00    5.5     0.00134905       -49.2715413592 -6.24E-04
    12 Broy./Diag. 0.10E+00    5.4     0.00178662       -49.2753579774 -3.82E-03
    13 Broy./Diag. 0.10E+00    5.3     0.00060901       -49.2787928768 -3.43E-03
    14 Broy./Diag. 0.10E+00    5.3     0.00064374       -49.2784078293  3.85E-04
    15 Broy./Diag. 0.10E+00    5.3     0.00043857       -49.2778576972  5.50E-04
    16 Broy./Diag. 0.10E+00    5.3     0.00019690       -49.2779598514 -1.02E-04
    17 Broy./Diag. 0.10E+00    5.5     0.00042289       -49.2770590643  9.01E-04
    18 Broy./Diag. 0.10E+00    5.5     0.00012013       -49.2762954821  7.64E-04
    19 Broy./Diag. 0.10E+00    5.3     0.00036516       -49.2764633933 -1.68E-04
    20 Broy./Diag. 0.10E+00    5.3     0.00010298       -49.2769999547 -5.37E-04
    21 Broy./Diag. 0.10E+00    5.5     0.00004541       -49.2770146424 -1.47E-05
    22 Broy./Diag. 0.10E+00    5.3     0.00013075       -49.2769751319  3.95E-05
    23 Broy./Diag. 0.10E+00    5.3     0.00012711       -49.2769997238 -2.46E-05
    24 Broy./Diag. 0.10E+00    5.3     0.00005087       -49.2769388991  6.08E-05
    25 Broy./Diag. 0.10E+00    5.5     0.00005208       -49.2768036803  1.35E-04
    26 Broy./Diag. 0.10E+00    5.4     0.00005560       -49.2766812083  1.22E-04
    27 Broy./Diag. 0.10E+00    5.3     0.00004284       -49.2766303668  5.08E-05
    28 Broy./Diag. 0.10E+00    5.3     0.00003309       -49.2765674673  6.29E-05
    29 Broy./Diag. 0.10E+00    5.3     0.00002014       -49.2765461890  2.13E-05
    30 Broy./Diag. 0.10E+00    5.3     0.00007958       -49.2765577574 -1.16E-05
    31 Broy./Diag. 0.10E+00    5.3     0.00005875       -49.2765652729 -7.52E-06
    32 Broy./Diag. 0.10E+00    5.3     0.00002209       -49.2765607024  4.57E-06
    33 Broy./Diag. 0.10E+00    5.4     0.00005655       -49.2765542185  6.48E-06
    34 Broy./Diag. 0.10E+00    5.4     0.00004501       -49.2765465508  7.67E-06
    35 Broy./Diag. 0.10E+00    5.4     0.00002185       -49.2765474317 -8.81E-07
    36 Broy./Diag. 0.10E+00    5.5     0.00001547       -49.2765529757 -5.54E-06
    37 Broy./Diag. 0.10E+00    5.4     0.00001071       -49.2765397273  1.32E-05
    38 Broy./Diag. 0.10E+00    5.4     0.00000630       -49.2765164560  2.33E-05
    39 Broy./Diag. 0.10E+00    5.3     0.00001960       -49.2764968195  1.96E-05
    40 Broy./Diag. 0.10E+00    5.3     0.00001530       -49.2764889308  7.89E-06
    41 Broy./Diag. 0.10E+00    5.5     0.00001126       -49.2765021802 -1.32E-05
    42 Broy./Diag. 0.10E+00    5.4     0.00000622       -49.2765067694 -4.59E-06
    43 Broy./Diag. 0.10E+00    5.4     0.00000709       -49.2765034175  3.35E-06
    44 Broy./Diag. 0.10E+00    5.3     0.00001164       -49.2764982806  5.14E-06
    45 Broy./Diag. 0.10E+00    5.3     0.00001373       -49.2764947003  3.58E-06
    46 Broy./Diag. 0.10E+00    5.4     0.00001230       -49.2764957728 -1.07E-06
    47 Broy./Diag. 0.10E+00    5.3     0.00000432       -49.2764953355  4.37E-07
    48 Broy./Diag. 0.10E+00    5.4     0.00000603       -49.2764876874  7.65E-06
    49 Broy./Diag. 0.10E+00    5.4     0.00000193       -49.2764851195  2.57E-06
    50 Broy./Diag. 0.10E+00    5.4     0.00000304       -49.2764847616  3.58E-07
    51 Broy./Diag. 0.10E+00    5.4     0.00000723       -49.2764836446  1.12E-06
    52 Broy./Diag. 0.10E+00    5.4     0.00000607       -49.2764837281 -8.35E-08
    53 Broy./Diag. 0.10E+00    5.3     0.00000422       -49.2764826578  1.07E-06
    54 Broy./Diag. 0.10E+00    5.4     0.00000306       -49.2764820856  5.72E-07
    55 Broy./Diag. 0.10E+00    5.4     0.00000353       -49.2764819833  1.02E-07
    56 Broy./Diag. 0.10E+00    5.4     0.00000587       -49.2764821202 -1.37E-07
    57 Broy./Diag. 0.10E+00    5.4     0.00000558       -49.2764819081  2.12E-07
    58 Broy./Diag. 0.10E+00    5.4     0.00000388       -49.2764819844 -7.63E-08
    59 Broy./Diag. 0.10E+00    5.3     0.00000322       -49.2764820800 -9.57E-08
    60 Broy./Diag. 0.10E+00    5.5     0.00000240       -49.2764823086 -2.29E-07
    61 Broy./Diag. 0.10E+00    5.5     0.00000246       -49.2764821929  1.16E-07
    62 Broy./Diag. 0.10E+00    5.4     0.00000250       -49.2764818893  3.04E-07
    63 Broy./Diag. 0.10E+00    5.3     0.00000214       -49.2764818176  7.17E-08
    64 Broy./Diag. 0.10E+00    5.3     0.00000303       -49.2764818793 -6.18E-08
    65 Broy./Diag. 0.10E+00    5.4     0.00000433       -49.2764819338 -5.44E-08
    66 Broy./Diag. 0.10E+00    5.4     0.00000625       -49.2764816565  2.77E-07
    67 Broy./Diag. 0.10E+00    5.3     0.00000896       -49.2764813424  3.14E-07
    68 Broy./Diag. 0.10E+00    5.4     0.00001281       -49.2764812763  6.61E-08
    69 Broy./Diag. 0.10E+00    5.4     0.00001839       -49.2764833500 -2.07E-06
    70 Broy./Diag. 0.10E+00    5.3     0.00002630       -49.2764840900 -7.40E-07
    71 Broy./Diag. 0.10E+00    5.4     0.00003722       -49.2764829352  1.15E-06
    72 Broy./Diag. 0.10E+00    5.4     0.00005336       -49.2764844529 -1.52E-06
    73 Broy./Diag. 0.10E+00    5.4     0.00007644       -49.2764828597  1.59E-06
    74 Broy./Diag. 0.10E+00    5.4     0.00010926       -49.2764835640 -7.04E-07
    75 Broy./Diag. 0.10E+00    5.4     0.00015643       -49.2764820112  1.55E-06
    76 Broy./Diag. 0.10E+00    5.4     0.00022372       -49.2764808225  1.19E-06
    77 Broy./Diag. 0.10E+00    5.4     0.00031999       -49.2764792024  1.62E-06
    78 Broy./Diag. 0.10E+00    5.4     0.00045794       -49.2764852531 -6.05E-06
    79 Broy./Diag. 0.10E+00    5.4     0.00065532       -49.2764907912 -5.54E-06
    80 Broy./Diag. 0.10E+00    5.4     0.00093734       -49.2764900415  7.50E-07
    81 Broy./Diag. 0.10E+00    5.4     0.00134071       -49.2764879602  2.08E-06
    82 Broy./Diag. 0.10E+00    5.4     0.00191758       -49.2764831834  4.78E-06
    83 Broy./Diag. 0.10E+00    5.4     0.00274153       -49.2764813666  1.82E-06
    84 Broy./Diag. 0.10E+00    5.5     0.00391797       -49.2764740448  7.32E-06
    85 Broy./Diag. 0.10E+00    5.5     0.00559148       -49.2764650095  9.04E-06
    86 Broy./Diag. 0.10E+00    5.4     0.00795946       -49.2764515730  1.34E-05
    87 Broy./Diag. 0.10E+00    5.4     0.01127701       -49.2764565020 -4.93E-06
    88 Broy./Diag. 0.10E+00    5.4     0.01581489       -49.2764628919 -6.39E-06
    89 Broy./Diag. 0.10E+00    5.5     0.02172709       -49.2764318936  3.10E-05
    90 Broy./Diag. 0.10E+00    5.4     0.02866606       -49.2763586667  7.32E-05
    91 Broy./Diag. 0.10E+00    5.4     0.03501471       -49.2762149185  1.44E-04
    92 Broy./Diag. 0.10E+00    5.4     0.03952359       -49.2759588930  2.56E-04
    93 Broy./Diag. 0.10E+00    5.3     0.05656330       -49.2754810009  4.78E-04
    94 Broy./Diag. 0.10E+00    5.3     0.06777706       -49.2746823005  7.99E-04
    95 Broy./Diag. 0.10E+00    5.3     0.06756719       -49.2735067936  1.18E-03
    96 Broy./Diag. 0.10E+00    5.4     0.05740836       -49.2721753169  1.33E-03
    97 Broy./Diag. 0.10E+00    5.4     0.04317774       -49.2709266873  1.25E-03
    98 Broy./Diag. 0.10E+00    5.4     0.02983457       -49.2698915834  1.04E-03
    99 Broy./Diag. 0.10E+00    5.5     0.02724050       -49.2691377242  7.54E-04
   100 Broy./Diag. 0.10E+00    5.4     0.02327718       -49.2686377612  5.00E-04
   101 Broy./Diag. 0.10E+00    5.4     0.01911362       -49.2683594451  2.78E-04
   102 Broy./Diag. 0.10E+00    5.4     0.01548789       -49.2683474813  1.20E-05
   103 Broy./Diag. 0.10E+00    5.4     0.01297578       -49.2692068506 -8.59E-04
   104 Broy./Diag. 0.10E+00    5.4     0.01022473       -49.2683005640  9.06E-04
   105 Broy./Diag. 0.10E+00    5.4     0.00748364       -49.2673839649  9.17E-04
   106 Broy./Diag. 0.10E+00    5.4     0.00503160       -49.2787434092 -1.14E-02
   107 Broy./Diag. 0.10E+00    5.4     0.00791025       -49.2825320698 -3.79E-03
   108 Broy./Diag. 0.10E+00    5.4     0.02809573       -49.3093737445 -2.68E-02
   109 Broy./Diag. 0.10E+00    5.5     0.03341034       -49.2836617869  2.57E-02
   110 Broy./Diag. 0.10E+00    5.4     0.02420450       -49.3931187202 -1.09E-01

 *** WARNING in pw/ps_wavelet_methods.F:238 :: Density non-zero on the ***
 *** edges of the unit cell: wrong results in WAVELET solver           ***

   111 Broy./Diag. 0.10E+00    5.3     0.04043227       -49.3976507360 -4.53E-03

 *** WARNING in pw/ps_wavelet_methods.F:238 :: Density non-zero on the ***
 *** edges of the unit cell: wrong results in WAVELET solver           ***

   112 Broy./Diag. 0.10E+00    5.4     0.02665492       -49.3258740641  7.18E-02

 *** WARNING in pw/ps_wavelet_methods.F:238 :: Density non-zero on the ***
 *** edges of the unit cell: wrong results in WAVELET solver           ***

   113 Broy./Diag. 0.10E+00    5.4     0.02800730       -49.2899826249  3.59E-02
   114 Broy./Diag. 0.10E+00    5.4     0.03798197       -49.2913577383 -1.38E-03
   115 Broy./Diag. 0.10E+00    5.3     0.02883098       -49.3382326655 -4.69E-02
   116 Broy./Diag. 0.10E+00    5.3     0.04338295       -49.3375968410  6.36E-04
   117 Broy./Diag. 0.10E+00    5.3     0.04488025       -49.3360895460  1.51E-03
   118 Broy./Diag. 0.10E+00    5.3     0.03217515       -49.3144286216  2.17E-02
   119 Broy./Diag. 0.10E+00    5.4     0.04223647       -49.3262183900 -1.18E-02
   120 Broy./Diag. 0.10E+00    5.4     0.04991002       -49.3235301038  2.69E-03
   121 Broy./Diag. 0.10E+00    5.4     0.05907533       -49.3103405449  1.32E-02
   122 Broy./Diag. 0.10E+00    5.4     0.05768840       -49.3044184424  5.92E-03
   123 Broy./Diag. 0.10E+00    5.4     0.04929359       -49.3030148379  1.40E-03
   124 Broy./Diag. 0.10E+00    5.4     0.01095097       -49.2968528895  6.16E-03
   125 Broy./Diag. 0.10E+00    5.3     0.02216659       -49.2890985734  7.75E-03
   126 Broy./Diag. 0.10E+00    5.4     0.03996757       -49.2852396836  3.86E-03
   127 Broy./Diag. 0.10E+00    5.3     0.03819116       -49.2738203322  1.14E-02
   128 Broy./Diag. 0.10E+00    5.3     0.03028580       -49.2930137774 -1.92E-02
   129 Broy./Diag. 0.10E+00    5.4     0.04746749       -49.2426935258  5.03E-02
   130 Broy./Diag. 0.10E+00    5.4     0.04766726       -49.2644612856 -2.18E-02
   131 Broy./Diag. 0.10E+00    5.3     0.04178094       -49.2311958370  3.33E-02
   132 Broy./Diag. 0.10E+00    5.4     0.02678550       -49.2294389012  1.76E-03
   133 Broy./Diag. 0.10E+00    5.4     0.03761497       -49.2228719492  6.57E-03
   134 Broy./Diag. 0.10E+00    5.4     0.05246398       -49.2277339801 -4.86E-03
   135 Broy./Diag. 0.10E+00    5.4     0.05487649       -49.2306950038 -2.96E-03
   136 Broy./Diag. 0.10E+00    5.4     0.04037787       -49.2344358785 -3.74E-03
   137 Broy./Diag. 0.10E+00    5.4     0.05834024       -49.2037587322  3.07E-02
   138 Broy./Diag. 0.10E+00    5.4     0.04877725       -49.2095574965 -5.80E-03
   139 Broy./Diag. 0.10E+00    5.3     0.07154374       -49.1892843043  2.03E-02
   140 Broy./Diag. 0.10E+00    5.3     0.04947088       -49.2313409586 -4.21E-02

 *** WARNING in pw/ps_wavelet_methods.F:238 :: Density non-zero on the ***
 *** edges of the unit cell: wrong results in WAVELET solver           ***

   141 Broy./Diag. 0.10E+00    5.4     0.11064501       -49.3390729075 -1.08E-01
   142 Broy./Diag. 0.10E+00    5.4     0.05467697       -49.3501297044 -1.11E-02
   143 Broy./Diag. 0.10E+00    5.3     0.02753371       -49.3487291631  1.40E-03
   144 Broy./Diag. 0.10E+00    5.3     0.02227485       -49.3517982116 -3.07E-03
   145 Broy./Diag. 0.10E+00    5.4     0.00951105       -49.3519658899 -1.68E-04
   146 Broy./Diag. 0.10E+00    5.4     0.00706218       -49.3467230579  5.24E-03
   147 Broy./Diag. 0.10E+00    5.4     0.01624843       -49.3227504419  2.40E-02
   148 Broy./Diag. 0.10E+00    5.3     0.00879956       -49.3148911989  7.86E-03
[...]
   427 Broy./Diag. 0.10E+00    5.4     0.05184635       -49.2756845318 -2.44E-02

 *** WARNING in pw/ps_wavelet_methods.F:238 :: Density non-zero on the ***
 *** edges of the unit cell: wrong results in WAVELET solver           ***

   428 Broy./Diag. 0.10E+00    5.4     0.03333654       -49.3462741063 -7.06E-02
   429 Broy./Diag. 0.10E+00    5.4     0.10715752       -49.2558857825  9.04E-02
   430 Broy./Diag. 0.10E+00    5.3     0.04760968       -49.3106404753 -5.48E-02
   431 Broy./Diag. 0.10E+00    5.4     0.03159421       -49.3289450206 -1.83E-02
   432 Broy./Diag. 0.10E+00    5.4     0.04145506       -49.3581541318 -2.92E-02
   433 Broy./Diag. 0.10E+00    5.4     0.03581231       -49.3684343268 -1.03E-02
   434 Broy./Diag. 0.10E+00    5.4     0.04101750       -49.3738365564 -5.40E-03
   435 Broy./Diag. 0.10E+00    5.3     0.03251255       -49.3789297784 -5.09E-03
   436 Broy./Diag. 0.10E+00    5.4     0.02801965       -49.3825762412 -3.65E-03
   437 Broy./Diag. 0.10E+00    5.4     0.03397097       -49.3788676831  3.71E-03
   438 Broy./Diag. 0.10E+00    5.3     0.02330248       -49.3579066960  2.10E-02
   439 Broy./Diag. 0.10E+00    5.4     0.06885723       -49.3279098650  3.00E-02
   440 Broy./Diag. 0.10E+00    5.4     0.05558824       -49.3156497511  1.23E-02
   441 Broy./Diag. 0.10E+00    5.4     0.02643487       -49.3262532613 -1.06E-02
   442 Broy./Diag. 0.10E+00    5.4     0.05278393       -49.2995771664  2.67E-02
   443 Broy./Diag. 0.10E+00    5.3     0.07208795       -49.2766627439  2.29E-02
   444 Broy./Diag. 0.10E+00    5.3     0.05152119       -49.2493948138  2.73E-02
   445 Broy./Diag. 0.10E+00    5.4     0.02161356       -49.2807687862 -3.14E-02
   446 Broy./Diag. 0.10E+00    5.3     0.01749587       -49.2758008871  4.97E-03
   447 Broy./Diag. 0.10E+00    5.4     0.01252628       -49.3040804237 -2.83E-02
   448 Broy./Diag. 0.10E+00    5.4     0.01652584       -49.2979749367  6.11E-03
   449 Broy./Diag. 0.10E+00    5.4     0.01052399       -49.3180509895 -2.01E-02
   450 Broy./Diag. 0.10E+00    5.5     0.03852148       -49.3397648570 -2.17E-02
   451 Broy./Diag. 0.10E+00    5.4     0.06235536       -49.3605773437 -2.08E-02
   452 Broy./Diag. 0.10E+00    5.5     0.04514571       -49.3674425915 -6.87E-03
   453 Broy./Diag. 0.10E+00    5.5     0.05641004       -49.3712111924 -3.77E-03
   454 Broy./Diag. 0.10E+00    5.3     0.09090446       -49.3877779712 -1.66E-02
   455 Broy./Diag. 0.10E+00    5.4     0.08873775       -49.3806995497  7.08E-03
   456 Broy./Diag. 0.10E+00    5.4     0.05429899       -49.3613726085  1.93E-02
   457 Broy./Diag. 0.10E+00    5.4     0.03912109       -49.3641850941 -2.81E-03
   458 Broy./Diag. 0.10E+00    5.4     0.02259227       -49.3714919548 -7.31E-03
   459 Broy./Diag. 0.10E+00    5.4     0.02979368       -49.3864497735 -1.50E-02
   460 Broy./Diag. 0.10E+00    5.4     0.02227989       -49.3849667892  1.48E-03
   461 Broy./Diag. 0.10E+00    5.4     0.04006293       -49.3632164475  2.18E-02
   462 Broy./Diag. 0.10E+00    5.4     0.02699228       -49.3606635396  2.55E-03
   463 Broy./Diag. 0.10E+00    5.4     0.05166046       -49.3446825988  1.60E-02

 *** WARNING in pw/ps_wavelet_methods.F:238 :: Density non-zero on the ***
 *** edges of the unit cell: wrong results in WAVELET solver           ***

   464 Broy./Diag. 0.10E+00    5.4     0.04943753       -49.3318916973  1.28E-02
   465 Broy./Diag. 0.10E+00    5.4     0.03586440       -49.3266841590  5.21E-03

 *** WARNING in pw/ps_wavelet_methods.F:238 :: Density non-zero on the ***
 *** edges of the unit cell: wrong results in WAVELET solver           ***

   466 Broy./Diag. 0.10E+00    5.4     0.06818862       -49.3086196043  1.81E-02
   467 Broy./Diag. 0.10E+00    5.4     0.03964794       -49.2937977788  1.48E-02

 *** WARNING in pw/ps_wavelet_methods.F:238 :: Density non-zero on the ***
 *** edges of the unit cell: wrong results in WAVELET solver           ***

   468 Broy./Diag. 0.10E+00    5.4     0.04151792       -49.2963865165 -2.59E-03
   469 Broy./Diag. 0.10E+00    5.4     0.01146867       -49.2732470775  2.31E-02

 *** WARNING in pw/ps_wavelet_methods.F:238 :: Density non-zero on the ***
 *** edges of the unit cell: wrong results in WAVELET solver           ***

   470 Broy./Diag. 0.10E+00    5.4     0.02507237       -49.2887085729 -1.55E-02
   471 Broy./Diag. 0.10E+00    5.4     0.01232459       -49.2893056011 -5.97E-04
   472 Broy./Diag. 0.10E+00    5.4     0.02360142       -49.2830510784  6.25E-03
   473 Broy./Diag. 0.10E+00    5.5     0.02080567       -49.2904104187 -7.36E-03
   474 Broy./Diag. 0.10E+00    5.4     0.01073682       -49.2945542765 -4.14E-03
   475 Broy./Diag. 0.10E+00    5.4     0.01799930       -49.3045177413 -9.96E-03
   476 Broy./Diag. 0.10E+00    5.4     0.09209967       -49.2925690581  1.19E-02
   477 Broy./Diag. 0.10E+00    5.4     0.09739104       -49.3081662434 -1.56E-02
   478 Broy./Diag. 0.10E+00    5.5     0.06559730       -49.3233783168 -1.52E-02
   479 Broy./Diag. 0.10E+00    5.4     0.03568328       -49.3335595552 -1.02E-02
   480 Broy./Diag. 0.10E+00    5.4     0.06197182       -49.3356507657 -2.09E-03
   481 Broy./Diag. 0.10E+00    5.4     0.04961975       -49.3112881509  2.44E-02
   482 Broy./Diag. 0.10E+00    5.4     0.05602455       -49.3100162668  1.27E-03
   483 Broy./Diag. 0.10E+00    5.4     0.06102992       -49.3030119280  7.00E-03
   484 Broy./Diag. 0.10E+00    5.4     0.05523376       -49.3045164879 -1.50E-03
   485 Broy./Diag. 0.10E+00    5.4     0.04026994       -49.3034016384  1.11E-03
   486 Broy./Diag. 0.10E+00    5.4     0.03535336       -49.2923491288  1.11E-02
   487 Broy./Diag. 0.10E+00    5.4     0.03014670       -49.2815167275  1.08E-02
   488 Broy./Diag. 0.10E+00    5.4     0.03928187       -49.3027007731 -2.12E-02
   489 Broy./Diag. 0.10E+00    5.4     0.02988822       -49.2948622963  7.84E-03
   490 Broy./Diag. 0.10E+00    5.4     0.04564736       -49.2996259099 -4.76E-03
   491 Broy./Diag. 0.10E+00    5.4     0.03467072       -49.3405458554 -4.09E-02
   492 Broy./Diag. 0.10E+00    5.4     0.04605753       -49.3478991184 -7.35E-03
   493 Broy./Diag. 0.10E+00    5.4     0.06633953       -49.3673451640 -1.94E-02
   494 Broy./Diag. 0.10E+00    5.3     0.03705715       -49.3559813220  1.14E-02
   495 Broy./Diag. 0.10E+00    5.4     0.03787277       -49.3754042110 -1.94E-02
   496 Broy./Diag. 0.10E+00    5.4     0.02377438       -49.3856626068 -1.03E-02
   497 Broy./Diag. 0.10E+00    5.4     0.02494695       -49.3752747182  1.04E-02
   498 Broy./Diag. 0.10E+00    5.4     0.01901154       -49.3484877055  2.68E-02
   499 Broy./Diag. 0.10E+00    5.4     0.01543065       -49.3277896491  2.07E-02
   500 Broy./Diag. 0.10E+00    5.5     0.02660588       -49.3293794340 -1.59E-03

  Leaving inner SCF loop after reaching   500 steps.


  Electronic density on regular grids:         -6.5783429756        3.4216570244
  Core density on regular grids:               10.0000000000        0.0000000000
  Hard and soft densities (Lebedev):          -21.3581620565      -17.9214713378
  Total Rho_soft + Rho1_hard - Rho1_soft      -10.0150336943
  Total charge density (r-space):              -0.0150336943
  Total Rho_soft + Rho0_soft (g-space):        -0.0150337463

  Overlap energy of the core charge distribution:               0.00000845868521
  Self energy of the core charge distribution:                -32.50467561761386
  Core Hamiltonian energy:                                    -13.40386245809577
  Hartree energy:                                              11.39872180386791
  Exchange-correlation energy:                                 -1.68958097249808
  Hartree-Fock Exchange energy:                                -1.88046920381764

  GAPW| Exc from hard and soft atomic rho1:                    -4.26531132930574
  GAPW| local Eh = 1 center integrals:                         -6.98421011517943

  Total energy:                                               -49.32937943395741

 *******************************************************************************
 *   ___                                                                       *
 *  /   \                                                                      *
 * [ABORT]                                                                     *
 *  \___/     SCF run NOT converged. To continue the calculation regardless,   *
 *    |             please set the keyword IGNORE_CONVERGENCE_FAILURE.         *
 *  O/|                                                                        *
 * /| |                                                                        *
 * / \                                                            qs_scf.F:611 *
 *******************************************************************************


 ===== Routine Calling Stack ===== 

            3 scf_env_do_scf
            2 qs_energies
            1 CP2K

 *******************************************************************************
 *   ___                                                                       *
 *  /   \                                                                      *
 * [ABORT]                                                                     *
 *  \___/     SCF run NOT converged. To continue the calculation regardless,   *
 *    |             please set the keyword IGNORE_CONVERGENCE_FAILURE.         *
 *  O/|                                                                        *
 * /| |                                                                        *
 * / \                                                            qs_scf.F:611 *
 *******************************************************************************


 ===== Routine Calling Stack ===== 

            3 scf_env_do_scf
            2 qs_energies
            1 CP2K

 *******************************************************************************
 *   ___                                                                       *
 *  /   \                                                                      *
 * [ABORT]                                                                     *
 *  \___/     SCF run NOT converged. To continue the calculation regardless,   *
 *    |             please set the keyword IGNORE_CONVERGENCE_FAILURE.         *
 *  O/|                                                                        *
 * /| |                                                                        *
 * / \                                                            qs_scf.F:611 *
 *******************************************************************************


 ===== Routine Calling Stack ===== 

            3 scf_env_do_scf
            2 qs_energies
            1 CP2K

 *******************************************************************************
 *   ___                                                                       *
 *  /   \                                                                      *
 * [ABORT]                                                                     *
 *  \___/     SCF run NOT converged. To continue the calculation regardless,   *
 *    |             please set the keyword IGNORE_CONVERGENCE_FAILURE.         *
 *  O/|                                                                        *
 * /| |                                                                        *
 * / \                                                            qs_scf.F:611 *
 *******************************************************************************


 ===== Routine Calling Stack ===== 

            3 scf_env_do_scf
            2 qs_energies
            1 CP2K

 *******************************************************************************
 *   ___                                                                       *
 *  /   \                                                                      *
 * [ABORT]                                                                     *
 *  \___/     SCF run NOT converged. To continue the calculation regardless,   *
 *    |             please set the keyword IGNORE_CONVERGENCE_FAILURE.         *
 *  O/|                                                                        *
 * /| |                                                                        *
 * / \                                                            qs_scf.F:611 *
 *******************************************************************************


 ===== Routine Calling Stack ===== 

            3 scf_env_do_scf
            2 qs_energies
            1 CP2K

 *******************************************************************************
 *   ___                                                                       *
 *  /   \                                                                      *
 * [ABORT]                                                                     *
 *  \___/     SCF run NOT converged. To continue the calculation regardless,   *
 *    |             please set the keyword IGNORE_CONVERGENCE_FAILURE.         *
 *  O/|                                                                        *
 * /| |                                                                        *
 * / \                                                            qs_scf.F:611 *
 *******************************************************************************


 ===== Routine Calling Stack ===== 

            3 scf_env_do_scf
            2 qs_energies
            1 CP2K

 *******************************************************************************
 *   ___                                                                       *
 *  /   \                                                                      *
 * [ABORT]                                                                     *
 *  \___/     SCF run NOT converged. To continue the calculation regardless,   *
 *    |             please set the keyword IGNORE_CONVERGENCE_FAILURE.         *
 *  O/|                                                                        *
 * /| |                                                                        *
 * / \                                                            qs_scf.F:611 *
 *******************************************************************************


 ===== Routine Calling Stack ===== 

            3 scf_env_do_scf
            2 qs_energies
            1 CP2K

 *******************************************************************************
 *   ___                                                                       *
 *  /   \                                                                      *
 * [ABORT]                                                                     *
 *  \___/     SCF run NOT converged. To continue the calculation regardless,   *
 *    |             please set the keyword IGNORE_CONVERGENCE_FAILURE.         *
 *  O/|                                                                        *
 * /| |                                                                        *
 * / \                                                            qs_scf.F:611 *
 *******************************************************************************


 ===== Routine Calling Stack ===== 

            3 scf_env_do_scf
            2 qs_energies
            1 CP2K

 *******************************************************************************
 *   ___                                                                       *
 *  /   \                                                                      *
 * [ABORT]                                                                     *
 *  \___/     SCF run NOT converged. To continue the calculation regardless,   *
 *    |             please set the keyword IGNORE_CONVERGENCE_FAILURE.         *
 *  O/|                                                                        *
 * /| |                                                                        *
 * / \                                                            qs_scf.F:611 *
 *******************************************************************************


 ===== Routine Calling Stack ===== 

            3 scf_env_do_scf
            2 qs_energies
            1 CP2K

 *******************************************************************************
 *   ___                                                                       *
 *  /   \                                                                      *
 * [ABORT]                                                                     *
 *  \___/     SCF run NOT converged. To continue the calculation regardless,   *
 *    |             please set the keyword IGNORE_CONVERGENCE_FAILURE.         *
 *  O/|                                                                        *
 * /| |                                                                        *
 * / \                                                            qs_scf.F:611 *
 *******************************************************************************


 ===== Routine Calling Stack ===== 

            3 scf_env_do_scf
            2 qs_energies
            1 CP2K

 *******************************************************************************
 *   ___                                                                       *
 *  /   \                                                                      *
 * [ABORT]                                                                     *
 *  \___/     SCF run NOT converged. To continue the calculation regardless,   *
 *    |             please set the keyword IGNORE_CONVERGENCE_FAILURE.         *
 *  O/|                                                                        *
 * /| |                                                                        *
 * / \                                                            qs_scf.F:611 *
 *******************************************************************************


 ===== Routine Calling Stack ===== 

            3 scf_env_do_scf
            2 qs_energies
            1 CP2K

 *******************************************************************************
 *   ___                                                                       *
 *  /   \                                                                      *
 * [ABORT]                                                                     *
 *  \___/     SCF run NOT converged. To continue the calculation regardless,   *
 *    |             please set the keyword IGNORE_CONVERGENCE_FAILURE.         *
 *  O/|                                                                        *
 * /| |                                                                        *
 * / \                                                            qs_scf.F:611 *
 *******************************************************************************


 ===== Routine Calling Stack ===== 

            3 scf_env_do_scf
            2 qs_energies
            1 CP2K

 *******************************************************************************
 *   ___                                                                       *
 *  /   \                                                                      *
 * [ABORT]                                                                     *
 *  \___/     SCF run NOT converged. To continue the calculation regardless,   *
 *    |             please set the keyword IGNORE_CONVERGENCE_FAILURE.         *
 *  O/|                                                                        *
 * /| |                                                                        *
 * / \                                                            qs_scf.F:611 *
 *******************************************************************************


 ===== Routine Calling Stack ===== 

            3 scf_env_do_scf
            2 qs_energies
            1 CP2K
