 DBCSR| CPU Multiplication driver                                           BLAS (U)
 DBCSR| Multrec recursion limit                                              512 (U)
 DBCSR| Multiplication stack size                                           1000 (D)
 DBCSR| Maximum elements for images                                    UNLIMITED (U)
 DBCSR| Multiplicative factor virtual images                                   1 (U)
 DBCSR| Use multiplication densification                                       T (D)
 DBCSR| Multiplication size stacks                                             3 (U)
 DBCSR| Use memory pool for CPU allocation                                     F (U)
 DBCSR| Number of 3D layers                                               SINGLE (U)
 DBCSR| Use MPI memory allocation                                              F (U)
 DBCSR| Use RMA algorithm                                                      F (U)
 DBCSR| Use Communication thread                                               T (U)
 DBCSR| Communication thread load                                             75 (D)
 DBCSR| MPI: My process id                                                     0
 DBCSR| MPI: Number of processes                                              24
 DBCSR| OMP: Current number of threads                                         4
 DBCSR| OMP: Max number of threads                                             4
 DBCSR| Split modifier for TAS multiplication algorithm                  1.0E+00 (U)


  **** **** ******  **  PROGRAM STARTED AT               2025-03-09 12:57:18.196
 ***** ** ***  *** **   PROGRAM STARTED ON                          i03r08c03s04
 **    ****   ******    PROGRAM STARTED BY                               di38fab
 ***** **    ** ** **   PROGRAM PROCESS ID                                595128
  **** **  *******  **  PROGRAM STARTED IN /hppfs/scratch/04/di38fab/05_MOL/W4-1
                                           1+ALK/li2/aug-cc-pV5Z

 CP2K| version string:                 CP2K version 2025.1 (Development Version)
 CP2K| source code revision number:                                  git:47877ba
 CP2K| cp2kflags: omp libint fftw3 libxc parallel scalapack max_contr=4         
 CP2K| is freely available from                            https://www.cp2k.org/
 CP2K| Program compiled at                          Thu Feb 20 16:00:34 CET 2025
 CP2K| Program compiled on                                               login04
 CP2K| Program compiled for                                        Supermuc-foss
 CP2K| Data directory path          /hppfs/work/pn36zo/di38fab/newcp2k/cp2k/data
 CP2K| Input file name                                                    GW.inp

 GLOBAL| Force Environment number                                              1
 GLOBAL| Basis set file name            /hppfs/scratch/04/di38fab/04_TMD/BASIS_A
 GLOBAL| Potential file name            /hppfs/work/pn36zo/di38fab/cp2k/data/ALL
 GLOBAL| MM Potential file name                                     MM_POTENTIAL
 GLOBAL| Coordinate file name                                      __STD_INPUT__
 GLOBAL| Method name                                                        CP2K
 GLOBAL| Project name                                                       MoS2
 GLOBAL| Run type                                                         ENERGY
 GLOBAL| FFT library                                                       FFTW3
 GLOBAL| Diagonalization library                                       ScaLAPACK
 GLOBAL| DGEMM library                                                      BLAS
 GLOBAL| Orthonormality check for eigenvectors                          DISABLED
 GLOBAL| Matrix multiplication library                                 ScaLAPACK
 GLOBAL| All-to-all communication in single precision                          F
 GLOBAL| FFTs using library dependent lengths                                  F
 GLOBAL| Grid backend                                                       AUTO
 GLOBAL| Global print level                                               MEDIUM
 GLOBAL| MPI I/O enabled                                                       T
 GLOBAL| Total number of message passing processes                            24
 GLOBAL| Number of threads for this process                                    4
 GLOBAL| This output is from process                                           0
 GLOBAL| OpenMP stack size per thread (OMP_STACKSIZE)                    default
 GLOBAL| CPU model name             Intel(R) Xeon(R) Platinum 8174 CPU @ 3.10GHz

 MEMORY| system memory details [Kb]
 MEMORY|                        rank 0           min           max       average
 MEMORY| MemTotal             98436664      98436648      98436664      98436656
 MEMORY| MemFree              84277416      84277416      84305452      84291434
 MEMORY| Buffers                     0             0             0             0
 MEMORY| Cached                2399536       2399536       2441308       2420422
 MEMORY| Slab                  1189664       1189664       1217216       1203440
 MEMORY| SReclaimable           264864        264864        267732        266298
 MEMORY| MemLikelyFree        86941816      86941816      87014492      86978154


 *** Fundamental physical constants (SI units) ***

 *** Literature: B. J. Mohr and B. N. Taylor,
 ***             CODATA recommended values of the fundamental physical
 ***             constants: 2006, Web Version 5.1
 ***             http://physics.nist.gov/constants

 Speed of light in vacuum [m/s]                             2.99792458000000E+08
 Magnetic constant or permeability of vacuum [N/A**2]       1.25663706143592E-06
 Electric constant or permittivity of vacuum [F/m]          8.85418781762039E-12
 Planck constant (h) [J*s]                                  6.62606896000000E-34
 Planck constant (h-bar) [J*s]                              1.05457162825177E-34
 Elementary charge [C]                                      1.60217648700000E-19
 Electron mass [kg]                                         9.10938215000000E-31
 Electron g factor [ ]                                     -2.00231930436220E+00
 Proton mass [kg]                                           1.67262163700000E-27
 Fine-structure constant                                    7.29735253760000E-03
 Rydberg constant [1/m]                                     1.09737315685270E+07
 Avogadro constant [1/mol]                                  6.02214179000000E+23
 Boltzmann constant [J/K]                                   1.38065040000000E-23
 Atomic mass unit [kg]                                      1.66053878200000E-27
 Bohr radius [m]                                            5.29177208590000E-11

 *** Conversion factors ***

 [u] -> [a.u.]                                              1.82288848426455E+03
 [Angstrom] -> [Bohr] = [a.u.]                              1.88972613288564E+00
 [a.u.] = [Bohr] -> [Angstrom]                              5.29177208590000E-01
 [a.u.] -> [s]                                              2.41888432650478E-17
 [a.u.] -> [fs]                                             2.41888432650478E-02
 [a.u.] -> [J]                                              4.35974393937059E-18
 [a.u.] -> [N]                                              8.23872205491840E-08
 [a.u.] -> [K]                                              3.15774647902944E+05
 [a.u.] -> [kJ/mol]                                         2.62549961709828E+03
 [a.u.] -> [kcal/mol]                                       6.27509468713739E+02
 [a.u.] -> [Pa]                                             2.94210107994716E+13
 [a.u.] -> [bar]                                            2.94210107994716E+08
 [a.u.] -> [atm]                                            2.90362800883016E+08
 [a.u.] -> [eV]                                             2.72113838565563E+01
 [a.u.] -> [Hz]                                             6.57968392072181E+15
 [a.u.] -> [1/cm] (wave numbers)                            2.19474631370540E+05
 [a.u./Bohr**2] -> [1/cm]                                   5.14048714338585E+03
 

 CELL_TOP| Volume [angstrom^3]:                                     27000.000000
 CELL_TOP| Vector a [angstrom    30.000     0.000     0.000   |a| =    30.000000
 CELL_TOP| Vector b [angstrom     0.000    30.000     0.000   |b| =    30.000000
 CELL_TOP| Vector c [angstrom     0.000     0.000    30.000   |c| =    30.000000
 CELL_TOP| Angle (b,c), alpha [degree]:                                90.000000
 CELL_TOP| Angle (a,c), beta  [degree]:                                90.000000
 CELL_TOP| Angle (a,b), gamma [degree]:                                90.000000
 CELL_TOP| Numerically orthorhombic:                                         YES
 CELL_TOP| Periodicity                                                      NONE

 GENERATE|  Preliminary Number of Bonds generated:                             0
 GENERATE|  Achieved consistency in connectivity generation.

 CELL| Volume [angstrom^3]:                                         27000.000000
 CELL| Vector a [angstrom]:      30.000     0.000     0.000   |a| =    30.000000
 CELL| Vector b [angstrom]:       0.000    30.000     0.000   |b| =    30.000000
 CELL| Vector c [angstrom]:       0.000     0.000    30.000   |c| =    30.000000
 CELL| Angle (b,c), alpha [degree]:                                    90.000000
 CELL| Angle (a,c), beta  [degree]:                                    90.000000
 CELL| Angle (a,b), gamma [degree]:                                    90.000000
 CELL| Numerically orthorhombic:                                             YES
 CELL| Periodicity                                                          NONE

 CELL_REF| Volume [angstrom^3]:                                     27000.000000
 CELL_REF| Vector a [angstrom    30.000     0.000     0.000   |a| =    30.000000
 CELL_REF| Vector b [angstrom     0.000    30.000     0.000   |b| =    30.000000
 CELL_REF| Vector c [angstrom     0.000     0.000    30.000   |c| =    30.000000
 CELL_REF| Angle (b,c), alpha [degree]:                                90.000000
 CELL_REF| Angle (a,c), beta  [degree]:                                90.000000
 CELL_REF| Angle (a,b), gamma [degree]:                                90.000000
 CELL_REF| Numerically orthorhombic:                                         YES
 CELL_REF| Periodicity                                                      NONE

 *******************************************************************************
 *******************************************************************************
 **                                                                           **
 **     #####                         ##              ##                      **
 **    ##   ##            ##          ##              ##                      **
 **   ##     ##                       ##            ######                    **
 **   ##     ##  ##   ##  ##   #####  ##  ##   ####   ##    #####    #####    **
 **   ##     ##  ##   ##  ##  ##      ## ##   ##      ##   ##   ##  ##   ##   **
 **   ##  ## ##  ##   ##  ##  ##      ####     ###    ##   ######   ######    **
 **    ##  ###   ##   ##  ##  ##      ## ##      ##   ##   ##       ##        **
 **     #######   #####   ##   #####  ##  ##  ####    ##    #####   ##        **
 **           ##                                                    ##        **
 **                                                                           **
 **                                                ... make the atoms dance   **
 **                                                                           **
 **            Copyright (C) by CP2K developers group (2000-2025)             **
 **                      J. Chem. Phys. 152, 194103 (2020)                    **
 **                                                                           **
 *******************************************************************************

 DFT| Spin restricted Kohn-Sham (RKS) calculation                            RKS
 DFT| Multiplicity                                                             1
 DFT| Number of spin states                                                    1
 DFT| Charge                                                                   0
 DFT| Self-interaction correction (SIC)                                       NO
 DFT| Cutoffs: density                                              1.000000E-10
 DFT|          gradient                                             1.000000E-10
 DFT|          tau                                                  1.000000E-10
 DFT|          cutoff_smoothing_range                               0.000000E+00
 DFT| XC density smoothing                                                  NONE
 DFT| XC derivatives                                                          PW

 FUNCTIONAL| PBE:
 FUNCTIONAL| J.P.Perdew, K.Burke, M.Ernzerhof, Phys. Rev. Letter, vol. 77, n 18,
 FUNCTIONAL|  pp. 3865-3868, (1996)sx=0.750sc=1.000{spin unpolarized}           


 QS| Method:                                                                GAPW
 QS| Density plane wave grid type                        NON-SPHERICAL FULLSPACE
 QS| Number of grid levels:                                                    4
 QS| Density cutoff [a.u.]:                                                250.0
 QS| Multi grid cutoff [a.u.]: 1) grid level                               250.0
 QS|                           2) grid level                                83.3
 QS|                           3) grid level                                27.8
 QS|                           4) grid level                                 9.3
 QS| Grid level progression factor:                                          3.0
 QS| Relative density cutoff [a.u.]:                                        50.0
 QS| Interaction thresholds: eps_pgf_orb:                                1.0E-12
 QS|                         eps_filter_matrix:                          0.0E+00
 QS|                         eps_core_charge:                            1.0E-14
 QS|                         eps_rho_gspace:                             1.0E-12
 QS|                         eps_rho_rspace:                             1.0E-12
 QS|                         eps_gvg_rspace:                             1.0E-06
 QS|                         eps_ppl:                                    1.0E-02
 QS|                         eps_ppnl:                                   1.0E-08
 QS| GAPW|      One center basis from orbital basis primitives
 QS| GAPW|                   eps_fit:                                    1.0E-04
 QS| GAPW|                   eps_iso:                                    1.0E-12
 QS| GAPW|                   eps_svd:                                    1.0E-08
 QS| GAPW|                   eps_cpc:                                    1.0E-12
 QS| GAPW|   atom-r-grid: quadrature:                                     GC_LOG
 QS| GAPW|      atom-s-grid:  max l :                                         10
 QS| GAPW|      max_l_rho0 :                                                   2


 ATOMIC KIND INFORMATION

  1. Atomic kind: li                                    Number of atoms:       2

     Orbital Basis Set                                               aug-cc-pV5Z

       Number of orbital shell sets:                                          12
       Number of orbital shells:                                              27
       Number of primitive Cartesian functions:                               38
       Number of Cartesian basis functions:                                  182
       Number of spherical basis functions:                                  127
       Norm type:                                                              2

       Normalised Cartesian orbitals:

                        Set   Shell   Orbital            Exponent    Coefficient

                          1       1    1s                0.006100       0.015556

                          2       1    1px               0.006500       0.002631
                          2       1    1py               0.006500       0.002631
                          2       1    1pz               0.006500       0.002631

                          3       1    1px              19.663500       0.000000
                                                         4.623110       0.000000
                                                         1.413780       0.000000
                                                         0.473721       0.000000
                                                         0.176151       0.162666
                                                         0.072675       0.000000
                                                         0.032141       0.000000
                                                         0.014556       0.000000
                          3       1    1py              19.663500       0.000000
                                                         4.623110       0.000000
                                                         1.413780       0.000000
                                                         0.473721       0.000000
                                                         0.176151       0.162666
                                                         0.072675       0.000000
                                                         0.032141       0.000000
                                                         0.014556       0.000000
                          3       1    1pz              19.663500       0.000000
                                                         4.623110       0.000000
                                                         1.413780       0.000000
                                                         0.473721       0.000000
                                                         0.176151       0.162666
                                                         0.072675       0.000000
                                                         0.032141       0.000000
                                                         0.014556       0.000000

                          3       2    2px              19.663500       0.000000
                                                         4.623110       0.000000
                                                         1.413780       0.000000
                                                         0.473721       0.000000
                                                         0.176151       0.000000
                                                         0.072675       0.053786
                                                         0.032141       0.000000
                                                         0.014556       0.000000
                          3       2    2py              19.663500       0.000000
                                                         4.623110       0.000000
                                                         1.413780       0.000000
                                                         0.473721       0.000000
                                                         0.176151       0.000000
                                                         0.072675       0.053786
                                                         0.032141       0.000000
                                                         0.014556       0.000000
                          3       2    2pz              19.663500       0.000000
                                                         4.623110       0.000000
                                                         1.413780       0.000000
                                                         0.473721       0.000000
                                                         0.176151       0.000000
                                                         0.072675       0.053786
                                                         0.032141       0.000000
                                                         0.014556       0.000000

                          3       3    3px              19.663500       0.031872
                                                         4.623110       0.037347
                                                         1.413780       0.033337
                                                         0.473721       0.027564
                                                         0.176151       0.025158
                                                         0.072675       0.019368
                                                         0.032141       0.008571
                                                         0.014556       0.001124
                          3       3    3py              19.663500       0.031872
                                                         4.623110       0.037347
                                                         1.413780       0.033337
                                                         0.473721       0.027564
                                                         0.176151       0.025158
                                                         0.072675       0.019368
                                                         0.032141       0.008571
                                                         0.014556       0.001124
                          3       3    3pz              19.663500       0.031872
                                                         4.623110       0.037347
                                                         1.413780       0.033337
                                                         0.473721       0.027564
                                                         0.176151       0.025158
                                                         0.072675       0.019368
                                                         0.032141       0.008571
                                                         0.014556       0.001124

                          3       4    4px              19.663500       0.000000
                                                         4.623110       0.000000
                                                         1.413780       0.000000
                                                         0.473721       0.000000
                                                         0.176151       0.000000
                                                         0.072675       0.000000
                                                         0.032141       0.019398
                                                         0.014556       0.000000
                          3       4    4py              19.663500       0.000000
                                                         4.623110       0.000000
                                                         1.413780       0.000000
                                                         0.473721       0.000000
                                                         0.176151       0.000000
                                                         0.072675       0.000000
                                                         0.032141       0.019398
                                                         0.014556       0.000000
                          3       4    4pz              19.663500       0.000000
                                                         4.623110       0.000000
                                                         1.413780       0.000000
                                                         0.473721       0.000000
                                                         0.176151       0.000000
                                                         0.072675       0.000000
                                                         0.032141       0.019398
                                                         0.014556       0.000000

                          3       5    5px              19.663500       0.000000
                                                         4.623110       0.000000
                                                         1.413780       0.000000
                                                         0.473721       0.000000
                                                         0.176151       0.000000
                                                         0.072675       0.000000
                                                         0.032141       0.000000
                                                         0.014556       0.007207
                          3       5    5py              19.663500       0.000000
                                                         4.623110       0.000000
                                                         1.413780       0.000000
                                                         0.473721       0.000000
                                                         0.176151       0.000000
                                                         0.072675       0.000000
                                                         0.032141       0.000000
                                                         0.014556       0.007207
                          3       5    5pz              19.663500       0.000000
                                                         4.623110       0.000000
                                                         1.413780       0.000000
                                                         0.473721       0.000000
                                                         0.176151       0.000000
                                                         0.072675       0.000000
                                                         0.032141       0.000000
                                                         0.014556       0.007207

                          4       1    1s            29493.000000       0.028872
                                                      4417.101000       0.054448
                                                      1005.223000       0.094027
                                                       284.700900       0.153477
                                                        92.865430       0.237406
                                                        33.511790       0.344162
                                                        13.041800       0.450825
                                                         5.357536       0.500890
                                                         2.279338       0.434757
                                                         0.993990       0.245466
                                                         0.433471       0.054355
                                                         0.095566       0.000652
                                                         0.044657      -0.000145
                                                         0.020633       0.000032

                          4       2    2s            29493.000000       0.000000
                                                      4417.101000       0.000000
                                                      1005.223000       0.000000
                                                       284.700900       0.000000
                                                        92.865430       0.000000
                                                        33.511790       0.000000
                                                        13.041800       0.000000
                                                         5.357536       0.000000
                                                         2.279338       0.000000
                                                         0.993990       0.000000
                                                         0.433471       0.380741
                                                         0.095566       0.000000
                                                         0.044657       0.000000
                                                         0.020633       0.000000

                          4       3    3s            29493.000000       0.000000
                                                      4417.101000       0.000000
                                                      1005.223000       0.000000
                                                       284.700900       0.000000
                                                        92.865430       0.000000
                                                        33.511790       0.000000
                                                        13.041800       0.000000
                                                         5.357536       0.000000
                                                         2.279338       0.000000
                                                         0.993990       0.000000
                                                         0.433471       0.000000
                                                         0.095566       0.122500
                                                         0.044657       0.000000
                                                         0.020633       0.000000

                          4       4    4s            29493.000000       0.000000
                                                      4417.101000       0.000000
                                                      1005.223000       0.000000
                                                       284.700900       0.000000
                                                        92.865430       0.000000
                                                        33.511790       0.000000
                                                        13.041800       0.000000
                                                         5.357536       0.000000
                                                         2.279338       0.000000
                                                         0.993990       0.000000
                                                         0.433471       0.000000
                                                         0.095566       0.000000
                                                         0.044657       0.069235
                                                         0.020633       0.000000

                          4       5    5s            29493.000000      -0.004812
                                                      4417.101000      -0.008495
                                                      1005.223000      -0.014632
                                                       284.700900      -0.024056
                                                        92.865430      -0.037226
                                                        33.511790      -0.054796
                                                        13.041800      -0.073015
                                                         5.357536      -0.085849
                                                         2.279338      -0.082176
                                                         0.993990      -0.068042
                                                         0.433471      -0.039586
                                                         0.095566       0.037626
                                                         0.044657       0.040089
                                                         0.020633       0.008661

                          4       6    6s            29493.000000       0.000000
                                                      4417.101000       0.000000
                                                      1005.223000       0.000000
                                                       284.700900       0.000000
                                                        92.865430       0.000000
                                                        33.511790       0.000000
                                                        13.041800       0.000000
                                                         5.357536       0.000000
                                                         2.279338       0.000000
                                                         0.993990       0.000000
                                                         0.433471       0.000000
                                                         0.095566       0.000000
                                                         0.044657       0.000000
                                                         0.020633       0.038800

                          5       1    1dx2              0.023500       0.002322
                          5       1    1dxy              0.023500       0.004021
                          5       1    1dxz              0.023500       0.004021
                          5       1    1dy2              0.023500       0.002322
                          5       1    1dyz              0.023500       0.004021
                          5       1    1dz2              0.023500       0.002322

                          6       1    1fx3              0.044800       0.001359
                          6       1    1fx2y             0.044800       0.003040
                          6       1    1fx2z             0.044800       0.003040
                          6       1    1fxy2             0.044800       0.003040
                          6       1    1fxyz             0.044800       0.005265
                          6       1    1fxz2             0.044800       0.003040
                          6       1    1fy3              0.044800       0.001359
                          6       1    1fy2z             0.044800       0.003040
                          6       1    1fyz2             0.044800       0.003040
                          6       1    1fz3              0.044800       0.001359

                          7       1    1dx2              0.531000       0.543657
                                                         0.248100       0.000000
                                                         0.115900       0.000000
                                                         0.054200       0.000000
                          7       1    1dxy              0.531000       0.941641
                                                         0.248100       0.000000
                                                         0.115900       0.000000
                                                         0.054200       0.000000
                          7       1    1dxz              0.531000       0.941641
                                                         0.248100       0.000000
                                                         0.115900       0.000000
                                                         0.054200       0.000000
                          7       1    1dy2              0.531000       0.543657
                                                         0.248100       0.000000
                                                         0.115900       0.000000
                                                         0.054200       0.000000
                          7       1    1dyz              0.531000       0.941641
                                                         0.248100       0.000000
                                                         0.115900       0.000000
                                                         0.054200       0.000000
                          7       1    1dz2              0.531000       0.543657
                                                         0.248100       0.000000
                                                         0.115900       0.000000
                                                         0.054200       0.000000

                          7       2    2dx2              0.531000       0.000000
                                                         0.248100       0.143551
                                                         0.115900       0.000000
                                                         0.054200       0.000000
                          7       2    2dxy              0.531000       0.000000
                                                         0.248100       0.248638
                                                         0.115900       0.000000
                                                         0.054200       0.000000
                          7       2    2dxz              0.531000       0.000000
                                                         0.248100       0.248638
                                                         0.115900       0.000000
                                                         0.054200       0.000000
                          7       2    2dy2              0.531000       0.000000
                                                         0.248100       0.143551
                                                         0.115900       0.000000
                                                         0.054200       0.000000
                          7       2    2dyz              0.531000       0.000000
                                                         0.248100       0.248638
                                                         0.115900       0.000000
                                                         0.054200       0.000000
                          7       2    2dz2              0.531000       0.000000
                                                         0.248100       0.143551
                                                         0.115900       0.000000
                                                         0.054200       0.000000

                          7       3    3dx2              0.531000       0.000000
                                                         0.248100       0.000000
                                                         0.115900       0.037893
                                                         0.054200       0.000000
                          7       3    3dxy              0.531000       0.000000
                                                         0.248100       0.000000
                                                         0.115900       0.065632
                                                         0.054200       0.000000
                          7       3    3dxz              0.531000       0.000000
                                                         0.248100       0.000000
                                                         0.115900       0.065632
                                                         0.054200       0.000000
                          7       3    3dy2              0.531000       0.000000
                                                         0.248100       0.000000
                                                         0.115900       0.037893
                                                         0.054200       0.000000
                          7       3    3dyz              0.531000       0.000000
                                                         0.248100       0.000000
                                                         0.115900       0.065632
                                                         0.054200       0.000000
                          7       3    3dz2              0.531000       0.000000
                                                         0.248100       0.000000
                                                         0.115900       0.037893
                                                         0.054200       0.000000

                          7       4    4dx2              0.531000       0.000000
                                                         0.248100       0.000000
                                                         0.115900       0.000000
                                                         0.054200       0.010021
                          7       4    4dxy              0.531000       0.000000
                                                         0.248100       0.000000
                                                         0.115900       0.000000
                                                         0.054200       0.017357
                          7       4    4dxz              0.531000       0.000000
                                                         0.248100       0.000000
                                                         0.115900       0.000000
                                                         0.054200       0.017357
                          7       4    4dy2              0.531000       0.000000
                                                         0.248100       0.000000
                                                         0.115900       0.000000
                                                         0.054200       0.010021
                          7       4    4dyz              0.531000       0.000000
                                                         0.248100       0.000000
                                                         0.115900       0.000000
                                                         0.054200       0.017357
                          7       4    4dz2              0.531000       0.000000
                                                         0.248100       0.000000
                                                         0.115900       0.000000
                                                         0.054200       0.010021

                          8       1    1gx4              0.072400       0.000814
                          8       1    1gx3y             0.072400       0.002154
                          8       1    1gx3z             0.072400       0.002154
                          8       1    1gx2y2            0.072400       0.002781
                          8       1    1gx2yz            0.072400       0.004817
                          8       1    1gx2z2            0.072400       0.002781
                          8       1    1gxy3             0.072400       0.002154
                          8       1    1gxy2z            0.072400       0.004817
                          8       1    1gxyz2            0.072400       0.004817
                          8       1    1gxz3             0.072400       0.002154
                          8       1    1gy4              0.072400       0.000814
                          8       1    1gy3z             0.072400       0.002154
                          8       1    1gy2z2            0.072400       0.002781
                          8       1    1gyz3             0.072400       0.002154
                          8       1    1gz4              0.072400       0.000814

                          9       1    1fx3              0.292000       0.092271
                                                         0.164100       0.000000
                                                         0.092200       0.000000
                          9       1    1fx2y             0.292000       0.206325
                                                         0.164100       0.000000
                                                         0.092200       0.000000
                          9       1    1fx2z             0.292000       0.206325
                                                         0.164100       0.000000
                                                         0.092200       0.000000
                          9       1    1fxy2             0.292000       0.206325
                                                         0.164100       0.000000
                                                         0.092200       0.000000
                          9       1    1fxyz             0.292000       0.357365
                                                         0.164100       0.000000
                                                         0.092200       0.000000
                          9       1    1fxz2             0.292000       0.206325
                                                         0.164100       0.000000
                                                         0.092200       0.000000
                          9       1    1fy3              0.292000       0.092271
                                                         0.164100       0.000000
                                                         0.092200       0.000000
                          9       1    1fy2z             0.292000       0.206325
                                                         0.164100       0.000000
                                                         0.092200       0.000000
                          9       1    1fyz2             0.292000       0.206325
                                                         0.164100       0.000000
                                                         0.092200       0.000000
                          9       1    1fz3              0.292000       0.092271
                                                         0.164100       0.000000
                                                         0.092200       0.000000

                          9       2    2fx3              0.292000       0.000000
                                                         0.164100       0.025232
                                                         0.092200       0.000000
                          9       2    2fx2y             0.292000       0.000000
                                                         0.164100       0.056420
                                                         0.092200       0.000000
                          9       2    2fx2z             0.292000       0.000000
                                                         0.164100       0.056420
                                                         0.092200       0.000000
                          9       2    2fxy2             0.292000       0.000000
                                                         0.164100       0.056420
                                                         0.092200       0.000000
                          9       2    2fxyz             0.292000       0.000000
                                                         0.164100       0.097722
                                                         0.092200       0.000000
                          9       2    2fxz2             0.292000       0.000000
                                                         0.164100       0.056420
                                                         0.092200       0.000000
                          9       2    2fy3              0.292000       0.000000
                                                         0.164100       0.025232
                                                         0.092200       0.000000
                          9       2    2fy2z             0.292000       0.000000
                                                         0.164100       0.056420
                                                         0.092200       0.000000
                          9       2    2fyz2             0.292000       0.000000
                                                         0.164100       0.056420
                                                         0.092200       0.000000
                          9       2    2fz3              0.292000       0.000000
                                                         0.164100       0.025232
                                                         0.092200       0.000000

                          9       3    3fx3              0.292000       0.000000
                                                         0.164100       0.000000
                                                         0.092200       0.006896
                          9       3    3fx2y             0.292000       0.000000
                                                         0.164100       0.000000
                                                         0.092200       0.015420
                          9       3    3fx2z             0.292000       0.000000
                                                         0.164100       0.000000
                                                         0.092200       0.015420
                          9       3    3fxy2             0.292000       0.000000
                                                         0.164100       0.000000
                                                         0.092200       0.015420
                          9       3    3fxyz             0.292000       0.000000
                                                         0.164100       0.000000
                                                         0.092200       0.026708
                          9       3    3fxz2             0.292000       0.000000
                                                         0.164100       0.000000
                                                         0.092200       0.015420
                          9       3    3fy3              0.292000       0.000000
                                                         0.164100       0.000000
                                                         0.092200       0.006896
                          9       3    3fy2z             0.292000       0.000000
                                                         0.164100       0.000000
                                                         0.092200       0.015420
                          9       3    3fyz2             0.292000       0.000000
                                                         0.164100       0.000000
                                                         0.092200       0.015420
                          9       3    3fz3              0.292000       0.000000
                                                         0.164100       0.000000
                                                         0.092200       0.006896

                         10       1    1hx5              0.127400       0.000917
                         10       1    1hx4y             0.127400       0.002750
                         10       1    1hx4z             0.127400       0.002750
                         10       1    1hx3y2            0.127400       0.004200
                         10       1    1hx3yz            0.127400       0.007275
                         10       1    1hx3z2            0.127400       0.004200
                         10       1    1hx2y3            0.127400       0.004200
                         10       1    1hx2y2z           0.127400       0.009392
                         10       1    1hx2yz2           0.127400       0.009392
                         10       1    1hx2z3            0.127400       0.004200
                         10       1    1hxy4             0.127400       0.002750
                         10       1    1hxy3z            0.127400       0.007275
                         10       1    1hxy2z2           0.127400       0.009392
                         10       1    1hxyz3            0.127400       0.007275
                         10       1    1hxz4             0.127400       0.002750
                         10       1    1hy5              0.127400       0.000917
                         10       1    1hy4z             0.127400       0.002750
                         10       1    1hy3z2            0.127400       0.004200
                         10       1    1hy2z3            0.127400       0.004200
                         10       1    1hyz4             0.127400       0.002750
                         10       1    1hz5              0.127400       0.000917

                         11       1    1gx4              0.297100       0.039529
                                                         0.150000       0.000000
                         11       1    1gx3y             0.297100       0.104584
                                                         0.150000       0.000000
                         11       1    1gx3z             0.297100       0.104584
                                                         0.150000       0.000000
                         11       1    1gx2y2            0.297100       0.135018
                                                         0.150000       0.000000
                         11       1    1gx2yz            0.297100       0.233858
                                                         0.150000       0.000000
                         11       1    1gx2z2            0.297100       0.135018
                                                         0.150000       0.000000
                         11       1    1gxy3             0.297100       0.104584
                                                         0.150000       0.000000
                         11       1    1gxy2z            0.297100       0.233858
                                                         0.150000       0.000000
                         11       1    1gxyz2            0.297100       0.233858
                                                         0.150000       0.000000
                         11       1    1gxz3             0.297100       0.104584
                                                         0.150000       0.000000
                         11       1    1gy4              0.297100       0.039529
                                                         0.150000       0.000000
                         11       1    1gy3z             0.297100       0.104584
                                                         0.150000       0.000000
                         11       1    1gy2z2            0.297100       0.135018
                                                         0.150000       0.000000
                         11       1    1gyz3             0.297100       0.104584
                                                         0.150000       0.000000
                         11       1    1gz4              0.297100       0.039529
                                                         0.150000       0.000000

                         11       2    2gx4              0.297100       0.000000
                                                         0.150000       0.006035
                         11       2    2gx3y             0.297100       0.000000
                                                         0.150000       0.015967
                         11       2    2gx3z             0.297100       0.000000
                                                         0.150000       0.015967
                         11       2    2gx2y2            0.297100       0.000000
                                                         0.150000       0.020614
                         11       2    2gx2yz            0.297100       0.000000
                                                         0.150000       0.035704
                         11       2    2gx2z2            0.297100       0.000000
                                                         0.150000       0.020614
                         11       2    2gxy3             0.297100       0.000000
                                                         0.150000       0.015967
                         11       2    2gxy2z            0.297100       0.000000
                                                         0.150000       0.035704
                         11       2    2gxyz2            0.297100       0.000000
                                                         0.150000       0.035704
                         11       2    2gxz3             0.297100       0.000000
                                                         0.150000       0.015967
                         11       2    2gy4              0.297100       0.000000
                                                         0.150000       0.006035
                         11       2    2gy3z             0.297100       0.000000
                                                         0.150000       0.015967
                         11       2    2gy2z2            0.297100       0.000000
                                                         0.150000       0.020614
                         11       2    2gyz3             0.297100       0.000000
                                                         0.150000       0.015967
                         11       2    2gz4              0.297100       0.000000
                                                         0.150000       0.006035

                         12       1    1hx5              0.294900       0.014021
                         12       1    1hx4y             0.294900       0.042064
                         12       1    1hx4z             0.294900       0.042064
                         12       1    1hx3y2            0.294900       0.064254
                         12       1    1hx3yz            0.294900       0.111290
                         12       1    1hx3z2            0.294900       0.064254
                         12       1    1hx2y3            0.294900       0.064254
                         12       1    1hx2y2z           0.294900       0.143675
                         12       1    1hx2yz2           0.294900       0.143675
                         12       1    1hx2z3            0.294900       0.064254
                         12       1    1hxy4             0.294900       0.042064
                         12       1    1hxy3z            0.294900       0.111290
                         12       1    1hxy2z2           0.294900       0.143675
                         12       1    1hxyz3            0.294900       0.111290
                         12       1    1hxz4             0.294900       0.042064
                         12       1    1hy5              0.294900       0.014021
                         12       1    1hy4z             0.294900       0.042064
                         12       1    1hy3z2            0.294900       0.064254
                         12       1    1hy2z3            0.294900       0.064254
                         12       1    1hyz4             0.294900       0.042064
                         12       1    1hz5              0.294900       0.014021

     RI Auxiliary Basis Set                                    aug-cc-pV5Z-RIFIT

       Number of orbital shell sets:                                          46
       Number of orbital shells:                                              46
       Number of primitive Cartesian functions:                               46
       Number of Cartesian basis functions:                                  371
       Number of spherical basis functions:                                  242
       Norm type:                                                              2

       Normalised Cartesian orbitals:

                        Set   Shell   Orbital            Exponent    Coefficient

                          1       1    1s                0.030479       0.051989

                          2       1    1px               0.045175       0.029687
                          2       1    1py               0.045175       0.029687
                          2       1    1pz               0.045175       0.029687

                          3       1    1dx2              0.048718       0.008315
                          3       1    1dxy              0.048718       0.014402
                          3       1    1dxz              0.048718       0.014402
                          3       1    1dy2              0.048718       0.008315
                          3       1    1dyz              0.048718       0.014402
                          3       1    1dz2              0.048718       0.008315

                          4       1    1s                0.064288       0.090993

                          5       1    1fx3              0.065213       0.003164
                          5       1    1fx2y             0.065213       0.007075
                          5       1    1fx2z             0.065213       0.007075
                          5       1    1fxy2             0.065213       0.007075
                          5       1    1fxyz             0.065213       0.012253
                          5       1    1fxz2             0.065213       0.007075
                          5       1    1fy3              0.065213       0.003164
                          5       1    1fy2z             0.065213       0.007075
                          5       1    1fyz2             0.065213       0.007075
                          5       1    1fz3              0.065213       0.003164

                          6       1    1px               0.072777       0.053881
                          6       1    1py               0.072777       0.053881
                          6       1    1pz               0.072777       0.053881

                          7       1    1gx4              0.099854       0.001971
                          7       1    1gx3y             0.099854       0.005215
                          7       1    1gx3z             0.099854       0.005215
                          7       1    1gx2y2            0.099854       0.006732
                          7       1    1gx2yz            0.099854       0.011661
                          7       1    1gx2z2            0.099854       0.006732
                          7       1    1gxy3             0.099854       0.005215
                          7       1    1gxy2z            0.099854       0.011661
                          7       1    1gxyz2            0.099854       0.011661
                          7       1    1gxz3             0.099854       0.005215
                          7       1    1gy4              0.099854       0.001971
                          7       1    1gy3z             0.099854       0.005215
                          7       1    1gy2z2            0.099854       0.006732
                          7       1    1gyz3             0.099854       0.005215
                          7       1    1gz4              0.099854       0.001971

                          8       1    1dx2              0.101078       0.029823
                          8       1    1dxy              0.101078       0.051656
                          8       1    1dxz              0.101078       0.051656
                          8       1    1dy2              0.101078       0.029823
                          8       1    1dyz              0.101078       0.051656
                          8       1    1dz2              0.101078       0.029823

                          9       1    1px               0.121261       0.101998
                          9       1    1py               0.121261       0.101998
                          9       1    1pz               0.121261       0.101998

                         10       1    1s                0.123532       0.148506

                         11       1    1fx3              0.156013       0.022520
                         11       1    1fx2y             0.156013       0.050356
                         11       1    1fx2z             0.156013       0.050356
                         11       1    1fxy2             0.156013       0.050356
                         11       1    1fxyz             0.156013       0.087219
                         11       1    1fxz2             0.156013       0.050356
                         11       1    1fy3              0.156013       0.022520
                         11       1    1fy2z             0.156013       0.050356
                         11       1    1fyz2             0.156013       0.050356
                         11       1    1fz3              0.156013       0.022520

                         12       1    1hx5              0.161413       0.001978
                         12       1    1hx4y             0.161413       0.005933
                         12       1    1hx4z             0.161413       0.005933
                         12       1    1hx3y2            0.161413       0.009063
                         12       1    1hx3yz            0.161413       0.015697
                         12       1    1hx3z2            0.161413       0.009063
                         12       1    1hx2y3            0.161413       0.009063
                         12       1    1hx2y2z           0.161413       0.020265
                         12       1    1hx2yz2           0.161413       0.020265
                         12       1    1hx2z3            0.161413       0.009063
                         12       1    1hxy4             0.161413       0.005933
                         12       1    1hxy3z            0.161413       0.015697
                         12       1    1hxy2z2           0.161413       0.020265
                         12       1    1hxyz3            0.161413       0.015697
                         12       1    1hxz4             0.161413       0.005933
                         12       1    1hy5              0.161413       0.001978
                         12       1    1hy4z             0.161413       0.005933
                         12       1    1hy3z2            0.161413       0.009063
                         12       1    1hy2z3            0.161413       0.009063
                         12       1    1hyz4             0.161413       0.005933
                         12       1    1hz5              0.161413       0.001978

                         13       1    1dx2              0.173452       0.076731
                         13       1    1dxy              0.173452       0.132903
                         13       1    1dxz              0.173452       0.132903
                         13       1    1dy2              0.173452       0.076731
                         13       1    1dyz              0.173452       0.132903
                         13       1    1dz2              0.173452       0.076731

                         14       1    1gx4              0.196188       0.012627
                         14       1    1gx3y             0.196188       0.033407
                         14       1    1gx3z             0.196188       0.033407
                         14       1    1gx2y2            0.196188       0.043128
                         14       1    1gx2yz            0.196188       0.074700
                         14       1    1gx2z2            0.196188       0.043128
                         14       1    1gxy3             0.196188       0.033407
                         14       1    1gxy2z            0.196188       0.074700
                         14       1    1gxyz2            0.196188       0.074700
                         14       1    1gxz3             0.196188       0.033407
                         14       1    1gy4              0.196188       0.012627
                         14       1    1gy3z             0.196188       0.033407
                         14       1    1gy2z2            0.196188       0.043128
                         14       1    1gyz3             0.196188       0.033407
                         14       1    1gz4              0.196188       0.012627

                         15       1    1px               0.223276       0.218772
                         15       1    1py               0.223276       0.218772
                         15       1    1pz               0.223276       0.218772

                         16       1    1s                0.246901       0.249633

                         17       1    1fx3              0.259280       0.070621
                         17       1    1fx2y             0.259280       0.157914
                         17       1    1fx2z             0.259280       0.157914
                         17       1    1fxy2             0.259280       0.157914
                         17       1    1fxyz             0.259280       0.273515
                         17       1    1fxz2             0.259280       0.157914
                         17       1    1fy3              0.259280       0.070621
                         17       1    1fy2z             0.259280       0.157914
                         17       1    1fyz2             0.259280       0.157914
                         17       1    1fz3              0.259280       0.070621

                         18       1    1ix6              0.339630       0.007797
                         18       1    1ix5y             0.339630       0.025861
                         18       1    1ix5z             0.339630       0.025861
                         18       1    1ix4y2            0.339630       0.044793
                         18       1    1ix4yz            0.339630       0.077583
                         18       1    1ix4z2            0.339630       0.044793
                         18       1    1ix3y3            0.339630       0.052999
                         18       1    1ix3y2z           0.339630       0.118510
                         18       1    1ix3yz2           0.339630       0.118510
                         18       1    1ix3z3            0.339630       0.052999
                         18       1    1ix2y4            0.339630       0.044793
                         18       1    1ix2y3z           0.339630       0.118510
                         18       1    1ix2y2z2          0.339630       0.152996
                         18       1    1ix2yz3           0.339630       0.118510
                         18       1    1ix2z4            0.339630       0.044793
                         18       1    1ixy5             0.339630       0.025861
                         18       1    1ixy4z            0.339630       0.077583
                         18       1    1ixy3z2           0.339630       0.118510
                         18       1    1ixy2z3           0.339630       0.118510
                         18       1    1ixyz4            0.339630       0.077583
                         18       1    1ixz5             0.339630       0.025861
                         18       1    1iy6              0.339630       0.007797
                         18       1    1iy5z             0.339630       0.025861
                         18       1    1iy4z2            0.339630       0.044793
                         18       1    1iy3z3            0.339630       0.052999
                         18       1    1iy2z4            0.339630       0.044793
                         18       1    1iyz5             0.339630       0.025861
                         18       1    1iz6              0.339630       0.007797

                         19       1    1dx2              0.339644       0.248715
                         19       1    1dxy              0.339644       0.430786
                         19       1    1dxz              0.339644       0.430786
                         19       1    1dy2              0.339644       0.248715
                         19       1    1dyz              0.339644       0.430786
                         19       1    1dz2              0.339644       0.248715

                         20       1    1s                0.380123       0.345027

                         21       1    1fx3              0.415519       0.204072
                         21       1    1fx2y             0.415519       0.456319
                         21       1    1fx2z             0.415519       0.456319
                         21       1    1fxy2             0.415519       0.456319
                         21       1    1fxyz             0.415519       0.790368
                         21       1    1fxz2             0.415519       0.456319
                         21       1    1fy3              0.415519       0.204072
                         21       1    1fy2z             0.415519       0.456319
                         21       1    1fyz2             0.415519       0.456319
                         21       1    1fz3              0.415519       0.204072

                         22       1    1hx5              0.427119       0.046733
                         22       1    1hx4y             0.427119       0.140200
                         22       1    1hx4z             0.427119       0.140200
                         22       1    1hx3y2            0.427119       0.214160
                         22       1    1hx3yz            0.427119       0.370935
                         22       1    1hx3z2            0.427119       0.214160
                         22       1    1hx2y3            0.427119       0.214160
                         22       1    1hx2y2z           0.427119       0.478876
                         22       1    1hx2yz2           0.427119       0.478876
                         22       1    1hx2z3            0.427119       0.214160
                         22       1    1hxy4             0.427119       0.140200
                         22       1    1hxy3z            0.427119       0.370935
                         22       1    1hxy2z2           0.427119       0.478876
                         22       1    1hxyz3            0.427119       0.370935
                         22       1    1hxz4             0.427119       0.140200
                         22       1    1hy5              0.427119       0.046733
                         22       1    1hy4z             0.427119       0.140200
                         22       1    1hy3z2            0.427119       0.214160
                         22       1    1hy2z3            0.427119       0.214160
                         22       1    1hyz4             0.427119       0.140200
                         22       1    1hz5              0.427119       0.046733

                         23       1    1gx4              0.434910       0.112729
                         23       1    1gx3y             0.434910       0.298252
                         23       1    1gx3z             0.434910       0.298252
                         23       1    1gx2y2            0.434910       0.385041
                         23       1    1gx2yz            0.434910       0.666911
                         23       1    1gx2z2            0.434910       0.385041
                         23       1    1gxy3             0.434910       0.298252
                         23       1    1gxy2z            0.434910       0.666911
                         23       1    1gxyz2            0.434910       0.666911
                         23       1    1gxz3             0.434910       0.298252
                         23       1    1gy4              0.434910       0.112729
                         23       1    1gy3z             0.434910       0.298252
                         23       1    1gy2z2            0.434910       0.385041
                         23       1    1gyz3             0.434910       0.298252
                         23       1    1gz4              0.434910       0.112729

                         24       1    1px               0.520190       0.629713
                         24       1    1py               0.520190       0.629713
                         24       1    1pz               0.520190       0.629713

                         25       1    1hx5              0.598672       0.140026
                         25       1    1hx4y             0.598672       0.420078
                         25       1    1hx4z             0.598672       0.420078
                         25       1    1hx3y2            0.598672       0.641679
                         25       1    1hx3yz            0.598672       1.111421
                         25       1    1hx3z2            0.598672       0.641679
                         25       1    1hx2y3            0.598672       0.641679
                         25       1    1hx2y2z           0.598672       1.434838
                         25       1    1hx2yz2           0.598672       1.434838
                         25       1    1hx2z3            0.598672       0.641679
                         25       1    1hxy4             0.598672       0.420078
                         25       1    1hxy3z            0.598672       1.111421
                         25       1    1hxy2z2           0.598672       1.434838
                         25       1    1hxyz3            0.598672       1.111421
                         25       1    1hxz4             0.598672       0.420078
                         25       1    1hy5              0.598672       0.140026
                         25       1    1hy4z             0.598672       0.420078
                         25       1    1hy3z2            0.598672       0.641679
                         25       1    1hy2z3            0.598672       0.641679
                         25       1    1hyz4             0.598672       0.420078
                         25       1    1hz5              0.598672       0.140026

                         26       1    1ix6              0.598672       0.065334
                         26       1    1ix5y             0.598672       0.216687
                         26       1    1ix5z             0.598672       0.216687
                         26       1    1ix4y2            0.598672       0.375313
                         26       1    1ix4yz            0.598672       0.650061
                         26       1    1ix4z2            0.598672       0.375313
                         26       1    1ix3y3            0.598672       0.444076
                         26       1    1ix3y2z           0.598672       0.992984
                         26       1    1ix3yz2           0.598672       0.992984
                         26       1    1ix3z3            0.598672       0.444076
                         26       1    1ix2y4            0.598672       0.375313
                         26       1    1ix2y3z           0.598672       0.992984
                         26       1    1ix2y2z2          0.598672       1.281937
                         26       1    1ix2yz3           0.598672       0.992984
                         26       1    1ix2z4            0.598672       0.375313
                         26       1    1ixy5             0.598672       0.216687
                         26       1    1ixy4z            0.598672       0.650061
                         26       1    1ixy3z2           0.598672       0.992984
                         26       1    1ixy2z3           0.598672       0.992984
                         26       1    1ixyz4            0.598672       0.650061
                         26       1    1ixz5             0.598672       0.216687
                         26       1    1iy6              0.598672       0.065334
                         26       1    1iy5z             0.598672       0.216687
                         26       1    1iy4z2            0.598672       0.375313
                         26       1    1iy3z3            0.598672       0.444076
                         26       1    1iy2z4            0.598672       0.375313
                         26       1    1iyz5             0.598672       0.216687
                         26       1    1iz6              0.598672       0.065334

                         27       1    1s                0.705917       0.548877

                         28       1    1fx3              0.764640       0.804883
                         28       1    1fx2y             0.764640       1.799773
                         28       1    1fx2z             0.764640       1.799773
                         28       1    1fxy2             0.764640       1.799773
[...]
 RS_GRID|   Planes                                 144.0         144         144
 RS_GRID|   Distribution                         Average         Max         Min
 RS_GRID|   Planes                                 124.0         124         124

 RS_GRID| Information for grid number                                          3
 RS_GRID|   Bounds   1            -67      67                Points:         135
 RS_GRID|   Bounds   2            -67      67                Points:         135
 RS_GRID|   Bounds   3            -67      67                Points:         135
 RS_GRID| Real space fully replicated
 RS_GRID| Group size                                                           1

 RS_GRID| Information for grid number                                          4
 RS_GRID|   Bounds   1            -40      39                Points:          80
 RS_GRID|   Bounds   2            -40      39                Points:          80
 RS_GRID|   Bounds   3            -40      39                Points:          80
 RS_GRID| Real space fully replicated
 RS_GRID| Group size                                                           1

  HFX_INFO| Replica ID:                                                        1
  HFX_INFO| FRACTION:                                               0.2500000000
  HFX_INFO| Interaction Potential:                                       COULOMB
  HFX_INFO| EPS_SCHWARZ:                                                 1.0E-10
  HFX_INFO| EPS_SCHWARZ_FORCES                                           1.0E-08
  HFX_INFO| EPS_STORAGE_SCALING:                                         1.0E+00
  HFX_INFO| NBINS:                                                            64
  HFX_INFO| BLOCK_SIZE:                                                        1
  HFX_INFO| Number of periodic shells considered:                           NONE
  HFX_INFO| Number of periodic cells considered:                            NONE

 
 RI-RPA| using GPW style
 

 OVERLAP MATRIX CONDITION NUMBER
 1-Norm Condition Number (Estimate)
   CN : |A|*|A^-1|:  1.208E+001 *  3.848E+005   = 4.649E+006  Log(1-CN):  6.6674
 1-Norm and 2-Norm Condition Numbers using Diagonalization
   CN : |A|*|A^-1|:  1.208E+001 *  3.848E+005   = 4.649E+006  Log(1-CN):  6.6674
   CN : max/min ev:  8.177E+000 /  4.155E-006   = 1.968E+006  Log(2-CN):  6.2941

 Number of electrons:                                                          6
 Number of occupied orbitals:                                                  3
 Number of molecular orbitals:                                               254

 Number of orbital functions:                                                254

 *** WARNING in qs_scf_initialization.F:1022 :: The numerical rank of the  ***
 *** overlap matrix is lower than the number of requested MOs! Reduce the  ***
 *** number of MOs to the number of available MOs. If necessary, request a ***
 *** lower number of MOs or increase EPS_DEFAULT or EPS_PGF_ORB.           ***

 Number of independent orbital functions:                                    253

 Extrapolation method: initial_guess

 Atomic guess: The first density matrix is obtained in terms of atomic orbitals
               and electronic configurations assigned to each atomic kind

 Guess for atomic kind: li

 Electronic structure
    Total number of core electrons                                          0.00
    Total number of valence electrons                                       3.00
    Total number of electrons                                               3.00
    Multiplicity                                                   not specified
    S      2.00  1.00


 *******************************************************************************
                  Iteration          Convergence                     Energy [au]
 *******************************************************************************
                          1        0.537201E-01                  -7.333671179963
                          2        0.129252E-01                  -7.334462256722
                          3        0.906281E-04                  -7.334510015486
                          4        0.344719E-04                  -7.334510064602
                          5        0.181775E-05                  -7.334510065295
                          6        0.107992E-05                  -7.334510065301
                          7        0.220374E-07                  -7.334510065303

 Energy components [Hartree]           Total Energy ::           -7.334510065303
                                        Band Energy ::           -3.861346405738
                                     Kinetic Energy ::            7.235577714184
                                   Potential Energy ::          -14.570087779487
                                      Virial (-V/T) ::            2.013673041052
                                        Core Energy ::           -9.674196045611
                                          XC Energy ::           -1.652285815364
                                     Coulomb Energy ::            3.991971795671

 Orbital energies  State     L     Occupation   Energy[a.u.]          Energy[eV]

                       1     0          2.000      -1.877856          -51.099058
                       2     0          1.000      -0.105635           -2.874464


 Total Electron Density at R=0:                                        13.384219
 Re-scaling the density matrix to get the right number of electrons
                  # Electrons              Trace(P)               Scaling factor
                            6                 6.000                        1.000


 SCF WAVEFUNCTION OPTIMIZATION

  Step     Update method      Time    Convergence         Total energy    Change
  ------------------------------------------------------------------------------

 *** WARNING in qs_mo_occupation.F:580 :: Fermi-Dirac smearing includes ***
 *** the first MO                                                       ***


  HFX_MEM_INFO| Est. max. program size before HFX [MiB]:                    2230
 POWELL| Error in trust region
 POWELL| Error in trust region
 POWELL| Error in trust region
 POWELL| Error in trust region
 POWELL| Error in trust region
 POWELL| Error in trust region
 POWELL| Error in trust region
 POWELL| Error in trust region
 POWELL| Error in trust region
 POWELL| Error in trust region
 POWELL| Error in trust region
 POWELL| Error in trust region
 POWELL| Error in trust region
 POWELL| Error in trust region
 POWELL| Error in trust region
 POWELL| Error in trust region
 POWELL| Error in trust region
 POWELL| Error in trust region
 POWELL| Error in trust region
 POWELL| Error in trust region
 POWELL| Error in trust region
 POWELL| Error in trust region
 POWELL| Error in trust region
 POWELL| Error in trust region
 POWELL| Error in trust region
 POWELL| Error in trust region
 POWELL| Error in trust region
 POWELL| Error in trust region
 POWELL| Error in trust region
 POWELL| Error in trust region
 POWELL| Error in trust region
 POWELL| Error in trust region
 POWELL| Error in trust region
 POWELL| Error in trust region
 POWELL| Error in trust region
 POWELL| Error in trust region
 POWELL| Error in trust region
 POWELL| Error in trust region
 POWELL| Error in trust region
 POWELL| Error in trust region
 POWELL| Error in trust region
 POWELL| Error in trust region
 POWELL| Error in trust region
 POWELL| Error in trust region
 POWELL| Error in trust region
 POWELL| Error in trust region
 POWELL| Error in trust region
 POWELL| Error in trust region
  HFX_MEM_INFO| Number of cart. primitive ERI's calculated:           9357855812
  HFX_MEM_INFO| Number of sph. ERI's calculated:                      1560867846
  HFX_MEM_INFO| Number of sph. ERI's stored in-core:                  1560867846
  HFX_MEM_INFO| Number of sph. ERI's stored on disk:                           0
  HFX_MEM_INFO| Number of sph. ERI's calculated on the fly:                    0
  HFX_MEM_INFO| Total memory consumption ERI's RAM [MiB]:                   5127
  HFX_MEM_INFO| Whereof max-vals [MiB]:                                        1
  HFX_MEM_INFO| Total compression factor ERI's RAM:                         2.32
  HFX_MEM_INFO| Total memory consumption ERI's disk [MiB]:                     0
  HFX_MEM_INFO| Total compression factor ERI's disk:                        0.00
  HFX_MEM_INFO| Size of density/Fock matrix [MiB]:                             0
  HFX_MEM_INFO| Size of buffers [MiB]:                                         6
  HFX_MEM_INFO| Est. max. program size after HFX  [MiB]:                    5555

     1 NoMix/Diag. 0.10E+00  550.7     0.83461074       -14.9303666612 -1.49E+01
     2 Broy./Diag. 0.10E+00    6.5     0.14110651       -14.9471621314 -1.68E-02
     3 Broy./Diag. 0.10E+00    6.7     0.10537758       -14.9238080296  2.34E-02
     4 Broy./Diag. 0.10E+00    6.5     0.06906352       -14.9079853932  1.58E-02
     5 Broy./Diag. 0.10E+00    6.7     0.05471625       -14.9065859954  1.40E-03
     6 Broy./Diag. 0.10E+00    6.6     0.03034790       -14.9144215694 -7.84E-03
     7 Broy./Diag. 0.10E+00    6.7     0.03948754       -14.9218966515 -7.48E-03
     8 Broy./Diag. 0.10E+00    6.8     0.07341713       -14.9322260908 -1.03E-02
     9 Broy./Diag. 0.10E+00    6.9     0.04396560       -14.9466464504 -1.44E-02
    10 Broy./Diag. 0.10E+00    7.0     0.03325111       -14.9628119794 -1.62E-02
    11 Broy./Diag. 0.10E+00    7.0     0.02063949       -14.9691583309 -6.35E-03
    12 Broy./Diag. 0.10E+00    7.0     0.01635933       -14.9714735375 -2.32E-03
    13 Broy./Diag. 0.10E+00    7.1     0.06628427       -14.9650607910  6.41E-03
    14 Broy./Diag. 0.10E+00    7.1     0.02290420       -14.9643806450  6.80E-04
    15 Broy./Diag. 0.10E+00    7.1     0.01136733       -14.9650953188 -7.15E-04
    16 Broy./Diag. 0.10E+00    7.0     0.00948823       -14.9654836006 -3.88E-04
    17 Broy./Diag. 0.10E+00    7.0     0.00962434       -14.9665698402 -1.09E-03
    18 Broy./Diag. 0.10E+00    7.1     0.00789932       -14.9670213858 -4.52E-04
    19 Broy./Diag. 0.10E+00    7.1     0.00315191       -14.9661138137  9.08E-04
    20 Broy./Diag. 0.10E+00    7.0     0.01109841       -14.9655936886  5.20E-04
    21 Broy./Diag. 0.10E+00    7.1     0.00543708       -14.9669998097 -1.41E-03
    22 Broy./Diag. 0.10E+00    7.1     0.00546204       -14.9664464057  5.53E-04
    23 Broy./Diag. 0.10E+00    7.1     0.00131051       -14.9656614101  7.85E-04
    24 Broy./Diag. 0.10E+00    7.0     0.00244596       -14.9656016263  5.98E-05
    25 Broy./Diag. 0.10E+00    7.0     0.00234455       -14.9659762044 -3.75E-04
    26 Broy./Diag. 0.10E+00    7.1     0.00541913       -14.9659208990  5.53E-05
    27 Broy./Diag. 0.10E+00    7.1     0.00424750       -14.9658762909  4.46E-05
    28 Broy./Diag. 0.10E+00    7.1     0.00292826       -14.9657551870  1.21E-04
    29 Broy./Diag. 0.10E+00    7.0     0.00364042       -14.9652227626  5.32E-04
    30 Broy./Diag. 0.10E+00    7.1     0.00161496       -14.9650329578  1.90E-04
    31 Broy./Diag. 0.10E+00    7.1     0.00283947       -14.9650812754 -4.83E-05
    32 Broy./Diag. 0.10E+00    7.0     0.00463021       -14.9651958565 -1.15E-04
    33 Broy./Diag. 0.10E+00    7.1     0.00148177       -14.9650884902  1.07E-04
    34 Broy./Diag. 0.10E+00    7.2     0.00054283       -14.9650636534  2.48E-05
    35 Broy./Diag. 0.10E+00    7.1     0.00057783       -14.9650783129 -1.47E-05
    36 Broy./Diag. 0.10E+00    7.0     0.00061370       -14.9650372696  4.10E-05
    37 Broy./Diag. 0.10E+00    7.0     0.00110785       -14.9650234466  1.38E-05
    38 Broy./Diag. 0.10E+00    7.1     0.00066358       -14.9650469538 -2.35E-05
    39 Broy./Diag. 0.10E+00    7.1     0.00024776       -14.9650145702  3.24E-05
    40 Broy./Diag. 0.10E+00    7.0     0.00037998       -14.9649747718  3.98E-05
    41 Broy./Diag. 0.10E+00    7.1     0.00044893       -14.9649916637 -1.69E-05
    42 Broy./Diag. 0.10E+00    7.1     0.00024318       -14.9649675171  2.41E-05
    43 Broy./Diag. 0.10E+00    7.0     0.00005653       -14.9649477233  1.98E-05
    44 Broy./Diag. 0.10E+00    7.0     0.00022701       -14.9649429399  4.78E-06
    45 Broy./Diag. 0.10E+00    7.1     0.00016552       -14.9649354937  7.45E-06
    46 Broy./Diag. 0.10E+00    7.1     0.00025517       -14.9649196149  1.59E-05
    47 Broy./Diag. 0.10E+00    7.1     0.00016948       -14.9649124514  7.16E-06
    48 Broy./Diag. 0.10E+00    7.2     0.00024839       -14.9649088623  3.59E-06
    49 Broy./Diag. 0.10E+00    7.0     0.00015497       -14.9648921457  1.67E-05
    50 Broy./Diag. 0.10E+00    7.2     0.00010027       -14.9648843824  7.76E-06
    51 Broy./Diag. 0.10E+00    7.1     0.00009140       -14.9648832177  1.16E-06
    52 Broy./Diag. 0.10E+00    7.2     0.00010061       -14.9648855622 -2.34E-06
    53 Broy./Diag. 0.10E+00    7.0     0.00005495       -14.9648814399  4.12E-06
    54 Broy./Diag. 0.10E+00    7.1     0.00001811       -14.9648805212  9.19E-07
    55 Broy./Diag. 0.10E+00    7.1     0.00001308       -14.9648827555 -2.23E-06
    56 Broy./Diag. 0.10E+00    7.1     0.00002323       -14.9648838902 -1.13E-06
    57 Broy./Diag. 0.10E+00    7.1     0.00003461       -14.9648844000 -5.10E-07
    58 Broy./Diag. 0.10E+00    7.1     0.00002146       -14.9648872926 -2.89E-06
    59 Broy./Diag. 0.10E+00    7.1     0.00002039       -14.9648856657  1.63E-06
    60 Broy./Diag. 0.10E+00    7.1     0.00006798       -14.9648821325  3.53E-06
    61 Broy./Diag. 0.10E+00    7.0     0.00003424       -14.9648823119 -1.79E-07
    62 Broy./Diag. 0.10E+00    7.0     0.00000948       -14.9648813983  9.14E-07
    63 Broy./Diag. 0.10E+00    7.0     0.00000558       -14.9648807458  6.52E-07
    64 Broy./Diag. 0.10E+00    7.0     0.00000641       -14.9648812866 -5.41E-07
    65 Broy./Diag. 0.10E+00    7.1     0.00000928       -14.9648817283 -4.42E-07
    66 Broy./Diag. 0.10E+00    7.1     0.00000538       -14.9648815678  1.60E-07
    67 Broy./Diag. 0.10E+00    7.1     0.00000725       -14.9648815437  2.41E-08
    68 Broy./Diag. 0.10E+00    7.1     0.00000691       -14.9648812985  2.45E-07
    69 Broy./Diag. 0.10E+00    7.0     0.00000236       -14.9648809944  3.04E-07
    70 Broy./Diag. 0.10E+00    7.1     0.00001132       -14.9648810100 -1.57E-08
    71 Broy./Diag. 0.10E+00    7.1     0.00000289       -14.9648813543 -3.44E-07
    72 Broy./Diag. 0.10E+00    7.1     0.00000124       -14.9648810437  3.11E-07
    73 Broy./Diag. 0.10E+00    7.1     0.00000183       -14.9648807660  2.78E-07
    74 Broy./Diag. 0.10E+00    7.1     0.00000246       -14.9648805957  1.70E-07
    75 Broy./Diag. 0.10E+00    7.0     0.00000109       -14.9648805222  7.35E-08
    76 Broy./Diag. 0.10E+00    7.1     0.00000230       -14.9648804531  6.92E-08
    77 Broy./Diag. 0.10E+00    7.1     0.00000141       -14.9648804956 -4.25E-08
    78 Broy./Diag. 0.10E+00    7.1     0.00000369       -14.9648805270 -3.15E-08
    79 Broy./Diag. 0.10E+00    7.1     0.00000196       -14.9648805021  2.49E-08
    80 Broy./Diag. 0.10E+00    7.0     0.00000347       -14.9648805309 -2.88E-08
    81 Broy./Diag. 0.10E+00    7.0     0.00000225       -14.9648806073 -7.64E-08
    82 Broy./Diag. 0.10E+00    7.1     0.00000156       -14.9648805744  3.29E-08
    83 Broy./Diag. 0.10E+00    7.0     0.00000113       -14.9648805520  2.23E-08
    84 Broy./Diag. 0.10E+00    7.0     0.00000127       -14.9648805962 -4.42E-08
    85 Broy./Diag. 0.10E+00    7.0     0.00000096       -14.9648806236 -2.74E-08

  *** SCF run converged in    85 steps ***


  Electronic density on regular grids:         -4.3712811979        1.6287188021
  Core density on regular grids:                6.0000000000        0.0000000000
  Hard and soft densities (Lebedev):           -6.2569359598       -4.6282177845
  Total Rho_soft + Rho1_hard - Rho1_soft       -5.9999993732
  Total charge density (r-space):               0.0000006268
  Total Rho_soft + Rho0_soft (g-space):         0.0000005840

  Overlap energy of the core charge distribution:               0.00000000000000
  Self energy of the core charge distribution:                -12.69426562982452
  Core Hamiltonian energy:                                      0.45048565124948
  Hartree energy:                                               3.11316842109210
  Exchange-correlation energy:                                 -1.21643300566393
  Hartree-Fock Exchange energy:                                -0.88668491721562

  GAPW| Exc from hard and soft atomic rho1:                    -1.53896729227512
  GAPW| local Eh = 1 center integrals:                         -2.19218385099201
  Electronic entropic energy:                                  -0.00000000000000
  Fermi energy:                                                -0.08433432872300

  Total energy:                                               -14.96488062362962

 !-----------------------------------------------------------------------------!
                     Mulliken Population Analysis

 #  Atom  Element  Kind  Atomic population                           Net charge
       1     li       1          3.000000                             -0.000000
       2     li       1          3.000000                              0.000000
 # Total charge                              6.000000                 -0.000000

 !-----------------------------------------------------------------------------!

 !-----------------------------------------------------------------------------!
                           Hirshfeld Charges

  #Atom  Element  Kind  Ref Charge     Population                    Net charge
      1       li     1       3.000          2.995                         0.005
      2       li     1       3.000          2.995                         0.005

  Total Charge                                                            0.011
 !-----------------------------------------------------------------------------!


 RI-RPA section
 --------------

  Used number of processes per group:                                          1
  Maximum allowed memory usage per MPI process:                      1024.00 MiB
  Number of removed MOs:                                                       1
  Number of available MOs:                                                   253
  RI_INFO| Cholesky decomposition group size:                                  2
  RI_INFO| Number of groups for auxiliary basis functions                     24

  RI_INFO| RI metric:                                                    COULOMB
  RI_INFO| Number of auxiliary basis functions:                              484
  GENERAL_INFO| Number of basis functions:                                   253
  GENERAL_INFO| Number of occupied orbitals:                                   3
  GENERAL_INFO| Number of virtual orbitals:                                  250
  RI_INFO| Total memory for (ia|K) integrals:                           2.77 MiB
  RI_INFO| Total memory for G0W0-(nm|K) integrals:                    237.30 MiB
  RI_INFO| Total memory for (ij|K) integrals:                           0.03 MiB
  RI_INFO| Total memory for (ab|K) integrals:                         232.64 MiB
  RI_INFO| Group size for frequency integration:                              24
  INTEG_INFO| Clenshaw-Curtius quadrature
  INTEG_INFO| Number of integration points:                                  100
  INTEG_INFO| Number of integration points per RPA group:                    100
  MATRIX_INFO| Number row processes:                                           6
  MATRIX_INFO| Number column processes:                                        4
  MATRIX_INFO| Row block size:                                                40
  MATRIX_INFO| Column block size:                                             93
  INTEG_INFO| Scaling parameter:                                         0.20000
  INTEG_INFO| Started with Integration point   1 of 100
