 DBCSR| CPU Multiplication driver                                           BLAS (U)
 DBCSR| Multrec recursion limit                                              512 (U)
 DBCSR| Multiplication stack size                                           1000 (D)
 DBCSR| Maximum elements for images                                    UNLIMITED (U)
 DBCSR| Multiplicative factor virtual images                                   1 (U)
 DBCSR| Use multiplication densification                                       T (D)
 DBCSR| Multiplication size stacks                                             3 (U)
 DBCSR| Use memory pool for CPU allocation                                     F (U)
 DBCSR| Number of 3D layers                                               SINGLE (U)
 DBCSR| Use MPI memory allocation                                              F (U)
 DBCSR| Use RMA algorithm                                                      F (U)
 DBCSR| Use Communication thread                                               T (U)
 DBCSR| Communication thread load                                             75 (D)
 DBCSR| MPI: My process id                                                     0
 DBCSR| MPI: Number of processes                                              24
 DBCSR| OMP: Current number of threads                                         4
 DBCSR| OMP: Max number of threads                                             4
 DBCSR| Split modifier for TAS multiplication algorithm                  1.0E+00 (U)


  **** **** ******  **  PROGRAM STARTED AT               2025-03-03 01:25:40.277
 ***** ** ***  *** **   PROGRAM STARTED ON                          i01r04c05s06
 **    ****   ******    PROGRAM STARTED BY                               di38fab
 ***** **    ** ** **   PROGRAM PROCESS ID                               4148536
  **** **  *******  **  PROGRAM STARTED IN /hppfs/scratch/04/di38fab/05_MOL/W4-1
                                           1+ALK/b2/TZVP

 CP2K| version string:                 CP2K version 2025.1 (Development Version)
 CP2K| source code revision number:                                  git:47877ba
 CP2K| cp2kflags: omp libint fftw3 libxc parallel scalapack max_contr=4         
 CP2K| is freely available from                            https://www.cp2k.org/
 CP2K| Program compiled at                          Thu Feb 20 16:00:34 CET 2025
 CP2K| Program compiled on                                               login04
 CP2K| Program compiled for                                        Supermuc-foss
 CP2K| Data directory path          /hppfs/work/pn36zo/di38fab/newcp2k/cp2k/data
 CP2K| Input file name                                                    GW.inp

 GLOBAL| Force Environment number                                              1
 GLOBAL| Basis set file name            /hppfs/scratch/04/di38fab/04_TMD/BASIS_A
 GLOBAL| Potential file name            /hppfs/work/pn36zo/di38fab/cp2k/data/ALL
 GLOBAL| MM Potential file name                                     MM_POTENTIAL
 GLOBAL| Coordinate file name                                      __STD_INPUT__
 GLOBAL| Method name                                                        CP2K
 GLOBAL| Project name                                                       MoS2
 GLOBAL| Run type                                                         ENERGY
 GLOBAL| FFT library                                                       FFTW3
 GLOBAL| Diagonalization library                                       ScaLAPACK
 GLOBAL| DGEMM library                                                      BLAS
 GLOBAL| Orthonormality check for eigenvectors                          DISABLED
 GLOBAL| Matrix multiplication library                                 ScaLAPACK
 GLOBAL| All-to-all communication in single precision                          F
 GLOBAL| FFTs using library dependent lengths                                  F
 GLOBAL| Grid backend                                                       AUTO
 GLOBAL| Global print level                                               MEDIUM
 GLOBAL| MPI I/O enabled                                                       T
 GLOBAL| Total number of message passing processes                            24
 GLOBAL| Number of threads for this process                                    4
 GLOBAL| This output is from process                                           0
 GLOBAL| OpenMP stack size per thread (OMP_STACKSIZE)                    default
 GLOBAL| CPU model name             Intel(R) Xeon(R) Platinum 8174 CPU @ 3.10GHz

 MEMORY| system memory details [Kb]
 MEMORY|                        rank 0           min           max       average
 MEMORY| MemTotal             98436708      98436660      98436708      98436684
 MEMORY| MemFree              83939252      83877600      83939252      83908426
 MEMORY| Buffers                     0             0             0             0
 MEMORY| Cached                2388512       2388512       2412744       2400628
 MEMORY| Slab                  1214196       1214196       1220016       1217106
 MEMORY| SReclaimable           266100        266100        271728        268914
 MEMORY| MemLikelyFree        86593864      86562072      86593864      86577968


 *** Fundamental physical constants (SI units) ***

 *** Literature: B. J. Mohr and B. N. Taylor,
 ***             CODATA recommended values of the fundamental physical
 ***             constants: 2006, Web Version 5.1
 ***             http://physics.nist.gov/constants

 Speed of light in vacuum [m/s]                             2.99792458000000E+08
 Magnetic constant or permeability of vacuum [N/A**2]       1.25663706143592E-06
 Electric constant or permittivity of vacuum [F/m]          8.85418781762039E-12
 Planck constant (h) [J*s]                                  6.62606896000000E-34
 Planck constant (h-bar) [J*s]                              1.05457162825177E-34
 Elementary charge [C]                                      1.60217648700000E-19
 Electron mass [kg]                                         9.10938215000000E-31
 Electron g factor [ ]                                     -2.00231930436220E+00
 Proton mass [kg]                                           1.67262163700000E-27
 Fine-structure constant                                    7.29735253760000E-03
 Rydberg constant [1/m]                                     1.09737315685270E+07
 Avogadro constant [1/mol]                                  6.02214179000000E+23
 Boltzmann constant [J/K]                                   1.38065040000000E-23
 Atomic mass unit [kg]                                      1.66053878200000E-27
 Bohr radius [m]                                            5.29177208590000E-11

 *** Conversion factors ***

 [u] -> [a.u.]                                              1.82288848426455E+03
 [Angstrom] -> [Bohr] = [a.u.]                              1.88972613288564E+00
 [a.u.] = [Bohr] -> [Angstrom]                              5.29177208590000E-01
 [a.u.] -> [s]                                              2.41888432650478E-17
 [a.u.] -> [fs]                                             2.41888432650478E-02
 [a.u.] -> [J]                                              4.35974393937059E-18
 [a.u.] -> [N]                                              8.23872205491840E-08
 [a.u.] -> [K]                                              3.15774647902944E+05
 [a.u.] -> [kJ/mol]                                         2.62549961709828E+03
 [a.u.] -> [kcal/mol]                                       6.27509468713739E+02
 [a.u.] -> [Pa]                                             2.94210107994716E+13
 [a.u.] -> [bar]                                            2.94210107994716E+08
 [a.u.] -> [atm]                                            2.90362800883016E+08
 [a.u.] -> [eV]                                             2.72113838565563E+01
 [a.u.] -> [Hz]                                             6.57968392072181E+15
 [a.u.] -> [1/cm] (wave numbers)                            2.19474631370540E+05
 [a.u./Bohr**2] -> [1/cm]                                   5.14048714338585E+03
 

 CELL_TOP| Volume [angstrom^3]:                                     27000.000000
 CELL_TOP| Vector a [angstrom    30.000     0.000     0.000   |a| =    30.000000
 CELL_TOP| Vector b [angstrom     0.000    30.000     0.000   |b| =    30.000000
 CELL_TOP| Vector c [angstrom     0.000     0.000    30.000   |c| =    30.000000
 CELL_TOP| Angle (b,c), alpha [degree]:                                90.000000
 CELL_TOP| Angle (a,c), beta  [degree]:                                90.000000
 CELL_TOP| Angle (a,b), gamma [degree]:                                90.000000
 CELL_TOP| Numerically orthorhombic:                                         YES
 CELL_TOP| Periodicity                                                      NONE

 GENERATE|  Preliminary Number of Bonds generated:                             0
 GENERATE|  Achieved consistency in connectivity generation.

 CELL| Volume [angstrom^3]:                                         27000.000000
 CELL| Vector a [angstrom]:      30.000     0.000     0.000   |a| =    30.000000
 CELL| Vector b [angstrom]:       0.000    30.000     0.000   |b| =    30.000000
 CELL| Vector c [angstrom]:       0.000     0.000    30.000   |c| =    30.000000
 CELL| Angle (b,c), alpha [degree]:                                    90.000000
 CELL| Angle (a,c), beta  [degree]:                                    90.000000
 CELL| Angle (a,b), gamma [degree]:                                    90.000000
 CELL| Numerically orthorhombic:                                             YES
 CELL| Periodicity                                                          NONE

 CELL_REF| Volume [angstrom^3]:                                     27000.000000
 CELL_REF| Vector a [angstrom    30.000     0.000     0.000   |a| =    30.000000
 CELL_REF| Vector b [angstrom     0.000    30.000     0.000   |b| =    30.000000
 CELL_REF| Vector c [angstrom     0.000     0.000    30.000   |c| =    30.000000
 CELL_REF| Angle (b,c), alpha [degree]:                                90.000000
 CELL_REF| Angle (a,c), beta  [degree]:                                90.000000
 CELL_REF| Angle (a,b), gamma [degree]:                                90.000000
 CELL_REF| Numerically orthorhombic:                                         YES
 CELL_REF| Periodicity                                                      NONE

 *******************************************************************************
 *******************************************************************************
 **                                                                           **
 **     #####                         ##              ##                      **
 **    ##   ##            ##          ##              ##                      **
 **   ##     ##                       ##            ######                    **
 **   ##     ##  ##   ##  ##   #####  ##  ##   ####   ##    #####    #####    **
 **   ##     ##  ##   ##  ##  ##      ## ##   ##      ##   ##   ##  ##   ##   **
 **   ##  ## ##  ##   ##  ##  ##      ####     ###    ##   ######   ######    **
 **    ##  ###   ##   ##  ##  ##      ## ##      ##   ##   ##       ##        **
 **     #######   #####   ##   #####  ##  ##  ####    ##    #####   ##        **
 **           ##                                                    ##        **
 **                                                                           **
 **                                                ... make the atoms dance   **
 **                                                                           **
 **            Copyright (C) by CP2K developers group (2000-2025)             **
 **                      J. Chem. Phys. 152, 194103 (2020)                    **
 **                                                                           **
 *******************************************************************************

 DFT| Spin restricted Kohn-Sham (RKS) calculation                            RKS
 DFT| Multiplicity                                                             1
 DFT| Number of spin states                                                    1
 DFT| Charge                                                                   0
 DFT| Self-interaction correction (SIC)                                       NO
 DFT| Cutoffs: density                                              1.000000E-10
 DFT|          gradient                                             1.000000E-10
 DFT|          tau                                                  1.000000E-10
 DFT|          cutoff_smoothing_range                               0.000000E+00
 DFT| XC density smoothing                                                  NONE
 DFT| XC derivatives                                                          PW

 FUNCTIONAL| PBE:
 FUNCTIONAL| J.P.Perdew, K.Burke, M.Ernzerhof, Phys. Rev. Letter, vol. 77, n 18,
 FUNCTIONAL|  pp. 3865-3868, (1996)sx=0.750sc=1.000{spin unpolarized}           


 QS| Method:                                                                GAPW
 QS| Density plane wave grid type                        NON-SPHERICAL FULLSPACE
 QS| Number of grid levels:                                                    4
 QS| Density cutoff [a.u.]:                                                250.0
 QS| Multi grid cutoff [a.u.]: 1) grid level                               250.0
 QS|                           2) grid level                                83.3
 QS|                           3) grid level                                27.8
 QS|                           4) grid level                                 9.3
 QS| Grid level progression factor:                                          3.0
 QS| Relative density cutoff [a.u.]:                                        50.0
 QS| Interaction thresholds: eps_pgf_orb:                                1.0E-12
 QS|                         eps_filter_matrix:                          0.0E+00
 QS|                         eps_core_charge:                            1.0E-14
 QS|                         eps_rho_gspace:                             1.0E-12
 QS|                         eps_rho_rspace:                             1.0E-12
 QS|                         eps_gvg_rspace:                             1.0E-06
 QS|                         eps_ppl:                                    1.0E-02
 QS|                         eps_ppnl:                                   1.0E-08
 QS| GAPW|      One center basis from orbital basis primitives
 QS| GAPW|                   eps_fit:                                    1.0E-04
 QS| GAPW|                   eps_iso:                                    1.0E-12
 QS| GAPW|                   eps_svd:                                    1.0E-08
 QS| GAPW|                   eps_cpc:                                    1.0E-12
 QS| GAPW|   atom-r-grid: quadrature:                                     GC_LOG
 QS| GAPW|      atom-s-grid:  max l :                                          8
 QS| GAPW|      max_l_rho0 :                                                   2


 ATOMIC KIND INFORMATION

  1. Atomic kind: B                                     Number of atoms:       2

     Orbital Basis Set                                        aug-TZVP-MOLOPT-ae

       Number of orbital shell sets:                                           2
       Number of orbital shells:                                              16
       Number of primitive Cartesian functions:                               14
       Number of Cartesian basis functions:                                   71
       Number of spherical basis functions:                                   56
       Norm type:                                                              2

       Normalised Cartesian orbitals:

                        Set   Shell   Orbital            Exponent    Coefficient

                          1       1    1s                0.037000       0.000000
                                                         0.055000       0.000000
                                                         0.081527       0.004479
                                                         0.231037       0.004596
                                                         0.627002      -0.034128
                                                         1.676500       0.393631
                                                         4.312240       1.325154
                                                        22.230570       0.835541

                          1       2    2s                0.037000       0.000000
                                                         0.055000       0.000000
                                                         0.081527       0.019156
                                                         0.231037       0.063291
                                                         0.627002       0.285761
                                                         1.676500       0.111410
                                                         4.312240      -0.066893
                                                        22.230570       0.380608

                          1       3    3s                0.037000       0.000000
                                                         0.055000       0.000000
                                                         0.081527       0.006030
                                                         0.231037       0.332555
                                                         0.627002      -0.285066
                                                         1.676500      -0.419641
                                                         4.312240       0.371542
                                                        22.230570      -1.681688

                          1       4    4s                0.037000       0.000000
                                                         0.055000       0.000000
                                                         0.081527       0.125733
                                                         0.231037      -0.011328
                                                         0.627002      -0.219216
                                                         1.676500       0.322739
                                                         4.312240      -0.760293
                                                        22.230570       1.905892

                          1       5    5s                0.037000       0.231931
                                                         0.055000      -0.273497
                                                         0.081527       0.006948
                                                         0.231037      -0.015074
                                                         0.627002       0.038509
                                                         1.676500       0.007320
                                                         4.312240       0.000000
                                                        22.230570       0.000000

                          1       6    2px               0.037000       0.000000
                                                         0.055000       0.000000
                                                         0.081527       0.001696
                                                         0.231037       0.008046
                                                         0.627002       0.466960
                                                         1.676500       0.900411
                                                         4.312240       1.390356
                                                        22.230570       4.654930
                          1       6    2py               0.037000       0.000000
                                                         0.055000       0.000000
                                                         0.081527       0.001696
                                                         0.231037       0.008046
                                                         0.627002       0.466960
                                                         1.676500       0.900411
                                                         4.312240       1.390356
                                                        22.230570       4.654930
                          1       6    2pz               0.037000       0.000000
                                                         0.055000       0.000000
                                                         0.081527       0.001696
                                                         0.231037       0.008046
                                                         0.627002       0.466960
                                                         1.676500       0.900411
                                                         4.312240       1.390356
                                                        22.230570       4.654930

                          1       7    3px               0.037000       0.000000
                                                         0.055000       0.000000
                                                         0.081527      -0.002807
                                                         0.231037       0.232786
                                                         0.627002       0.042448
                                                         1.676500      -0.296803
                                                         4.312240      -1.541502
                                                        22.230570      -2.619980
                          1       7    3py               0.037000       0.000000
                                                         0.055000       0.000000
                                                         0.081527      -0.002807
                                                         0.231037       0.232786
                                                         0.627002       0.042448
                                                         1.676500      -0.296803
                                                         4.312240      -1.541502
                                                        22.230570      -2.619980
                          1       7    3pz               0.037000       0.000000
                                                         0.055000       0.000000
                                                         0.081527      -0.002807
                                                         0.231037       0.232786
                                                         0.627002       0.042448
                                                         1.676500      -0.296803
                                                         4.312240      -1.541502
                                                        22.230570      -2.619980

                          1       8    4px               0.037000       0.000000
                                                         0.055000       0.000000
                                                         0.081527       0.060026
                                                         0.231037       0.011408
                                                         0.627002       0.008231
                                                         1.676500      -0.436837
                                                         4.312240       1.515783
                                                        22.230570      -8.036820
                          1       8    4py               0.037000       0.000000
                                                         0.055000       0.000000
                                                         0.081527       0.060026
                                                         0.231037       0.011408
                                                         0.627002       0.008231
                                                         1.676500      -0.436837
                                                         4.312240       1.515783
                                                        22.230570      -8.036820
                          1       8    4pz               0.037000       0.000000
                                                         0.055000       0.000000
                                                         0.081527       0.060026
                                                         0.231037       0.011408
                                                         0.627002       0.008231
                                                         1.676500      -0.436837
                                                         4.312240       1.515783
                                                        22.230570      -8.036820

                          1       9    5px               0.037000       0.000467
                                                         0.055000      -0.024055
                                                         0.081527      -0.022149
                                                         0.231037      -0.019624
                                                         0.627002       0.043495
                                                         1.676500       0.050078
                                                         4.312240       0.000000
                                                        22.230570       0.000000
                          1       9    5py               0.037000       0.000467
                                                         0.055000      -0.024055
                                                         0.081527      -0.022149
                                                         0.231037      -0.019624
                                                         0.627002       0.043495
                                                         1.676500       0.050078
                                                         4.312240       0.000000
                                                        22.230570       0.000000
                          1       9    5pz               0.037000       0.000467
                                                         0.055000      -0.024055
                                                         0.081527      -0.022149
                                                         0.231037      -0.019624
                                                         0.627002       0.043495
                                                         1.676500       0.050078
                                                         4.312240       0.000000
                                                        22.230570       0.000000

                          1      10    3dx2              0.037000       0.000000
                                                         0.055000       0.000000
                                                         0.081527       0.002153
                                                         0.231037       0.011346
                                                         0.627002       0.387577
                                                         1.676500       2.056214
                                                         4.312240      -1.635688
                                                        22.230570     -74.959133
                          1      10    3dxy              0.037000       0.000000
                                                         0.055000       0.000000
                                                         0.081527       0.003728
                                                         0.231037       0.019651
                                                         0.627002       0.671303
                                                         1.676500       3.561468
                                                         4.312240      -2.833095
                                                        22.230570    -129.833027
                          1      10    3dxz              0.037000       0.000000
                                                         0.055000       0.000000
                                                         0.081527       0.003728
                                                         0.231037       0.019651
                                                         0.627002       0.671303
                                                         1.676500       3.561468
                                                         4.312240      -2.833095
                                                        22.230570    -129.833027
                          1      10    3dy2              0.037000       0.000000
                                                         0.055000       0.000000
                                                         0.081527       0.002153
                                                         0.231037       0.011346
                                                         0.627002       0.387577
                                                         1.676500       2.056214
                                                         4.312240      -1.635688
                                                        22.230570     -74.959133
                          1      10    3dyz              0.037000       0.000000
                                                         0.055000       0.000000
                                                         0.081527       0.003728
                                                         0.231037       0.019651
                                                         0.627002       0.671303
                                                         1.676500       3.561468
                                                         4.312240      -2.833095
                                                        22.230570    -129.833027
                          1      10    3dz2              0.037000       0.000000
                                                         0.055000       0.000000
                                                         0.081527       0.002153
                                                         0.231037       0.011346
                                                         0.627002       0.387577
                                                         1.676500       2.056214
                                                         4.312240      -1.635688
                                                        22.230570     -74.959133

                          1      11    4dx2              0.037000       0.000000
                                                         0.055000       0.000000
                                                         0.081527      -0.002553
                                                         0.231037       0.105095
                                                         0.627002       0.288898
                                                         1.676500      -1.711794
                                                         4.312240       1.670808
                                                        22.230570     100.877982
                          1      11    4dxy              0.037000       0.000000
                                                         0.055000       0.000000
                                                         0.081527      -0.004422
                                                         0.231037       0.182030
                                                         0.627002       0.500386
                                                         1.676500      -2.964914
                                                         4.312240       2.893924
                                                        22.230570     174.725791
                          1      11    4dxz              0.037000       0.000000
                                                         0.055000       0.000000
                                                         0.081527      -0.004422
                                                         0.231037       0.182030
                                                         0.627002       0.500386
                                                         1.676500      -2.964914
                                                         4.312240       2.893924
                                                        22.230570     174.725791
                          1      11    4dy2              0.037000       0.000000
                                                         0.055000       0.000000
                                                         0.081527      -0.002553
                                                         0.231037       0.105095
                                                         0.627002       0.288898
                                                         1.676500      -1.711794
                                                         4.312240       1.670808
                                                        22.230570     100.877982
                          1      11    4dyz              0.037000       0.000000
                                                         0.055000       0.000000
                                                         0.081527      -0.004422
                                                         0.231037       0.182030
                                                         0.627002       0.500386
                                                         1.676500      -2.964914
                                                         4.312240       2.893924
                                                        22.230570     174.725791
                          1      11    4dz2              0.037000       0.000000
                                                         0.055000       0.000000
                                                         0.081527      -0.002553
                                                         0.231037       0.105095
                                                         0.627002       0.288898
                                                         1.676500      -1.711794
                                                         4.312240       1.670808
                                                        22.230570     100.877982

                          1      12    5dx2              0.037000       0.000836
                                                         0.055000       0.008173
                                                         0.081527       0.001542
                                                         0.231037      -0.005613
                                                         0.627002       0.001771
                                                         1.676500       0.009900
                                                         4.312240       0.000000
                                                        22.230570       0.000000
                          1      12    5dxy              0.037000       0.001448
                                                         0.055000       0.014155
                                                         0.081527       0.002671
                                                         0.231037      -0.009722
                                                         0.627002       0.003067
                                                         1.676500       0.017147
                                                         4.312240       0.000000
                                                        22.230570       0.000000
                          1      12    5dxz              0.037000       0.001448
                                                         0.055000       0.014155
                                                         0.081527       0.002671
                                                         0.231037      -0.009722
                                                         0.627002       0.003067
                                                         1.676500       0.017147
                                                         4.312240       0.000000
                                                        22.230570       0.000000
                          1      12    5dy2              0.037000       0.000836
                                                         0.055000       0.008173
                                                         0.081527       0.001542
                                                         0.231037      -0.005613
                                                         0.627002       0.001771
                                                         1.676500       0.009900
                                                         4.312240       0.000000
                                                        22.230570       0.000000
                          1      12    5dyz              0.037000       0.001448
                                                         0.055000       0.014155
                                                         0.081527       0.002671
                                                         0.231037      -0.009722
                                                         0.627002       0.003067
                                                         1.676500       0.017147
                                                         4.312240       0.000000
                                                        22.230570       0.000000
                          1      12    5dz2              0.037000       0.000836
                                                         0.055000       0.008173
                                                         0.081527       0.001542
                                                         0.231037      -0.005613
                                                         0.627002       0.001771
                                                         1.676500       0.009900
                                                         4.312240       0.000000
                                                        22.230570       0.000000

                          1      13    4fx3              0.037000       0.000000
                                                         0.055000       0.000000
                                                         0.081527      -0.000984
                                                         0.231037       0.018935
                                                         0.627002       0.373794
                                                         1.676500       0.585978
                                                         4.312240      -0.290033
                                                        22.230570      20.762424
                          1      13    4fx2y             0.037000       0.000000
                                                         0.055000       0.000000
                                                         0.081527      -0.002200
                                                         0.231037       0.042339
                                                         0.627002       0.835829
                                                         1.676500       1.310286
                                                         4.312240      -0.648533
                                                        22.230570      46.426192
                          1      13    4fx2z             0.037000       0.000000
                                                         0.055000       0.000000
                                                         0.081527      -0.002200
                                                         0.231037       0.042339
                                                         0.627002       0.835829
                                                         1.676500       1.310286
                                                         4.312240      -0.648533
                                                        22.230570      46.426192
                          1      13    4fxy2             0.037000       0.000000
                                                         0.055000       0.000000
                                                         0.081527      -0.002200
                                                         0.231037       0.042339
                                                         0.627002       0.835829
                                                         1.676500       1.310286
                                                         4.312240      -0.648533
                                                        22.230570      46.426192
                          1      13    4fxyz             0.037000       0.000000
                                                         0.055000       0.000000
                                                         0.081527      -0.003810
                                                         0.231037       0.073333
                                                         0.627002       1.447698
                                                         1.676500       2.269481
                                                         4.312240      -1.123293
                                                        22.230570      80.412523
                          1      13    4fxz2             0.037000       0.000000
                                                         0.055000       0.000000
                                                         0.081527      -0.002200
                                                         0.231037       0.042339
                                                         0.627002       0.835829
                                                         1.676500       1.310286
                                                         4.312240      -0.648533
                                                        22.230570      46.426192
                          1      13    4fy3              0.037000       0.000000
                                                         0.055000       0.000000
                                                         0.081527      -0.000984
                                                         0.231037       0.018935
                                                         0.627002       0.373794
                                                         1.676500       0.585978
                                                         4.312240      -0.290033
                                                        22.230570      20.762424
                          1      13    4fy2z             0.037000       0.000000
                                                         0.055000       0.000000
                                                         0.081527      -0.002200
                                                         0.231037       0.042339
                                                         0.627002       0.835829
                                                         1.676500       1.310286
                                                         4.312240      -0.648533
                                                        22.230570      46.426192
                          1      13    4fyz2             0.037000       0.000000
                                                         0.055000       0.000000
                                                         0.081527      -0.002200
                                                         0.231037       0.042339
                                                         0.627002       0.835829
                                                         1.676500       1.310286
                                                         4.312240      -0.648533
                                                        22.230570      46.426192
                          1      13    4fz3              0.037000       0.000000
                                                         0.055000       0.000000
                                                         0.081527      -0.000984
                                                         0.231037       0.018935
                                                         0.627002       0.373794
                                                         1.676500       0.585978
                                                         4.312240      -0.290033
                                                        22.230570      20.762424

                          1      14    5fx3              0.037000       0.000585
                                                         0.055000       0.000724
                                                         0.081527       0.000168
                                                         0.231037      -0.001009
                                                         0.627002       0.001060
                                                         1.676500       0.009690
                                                         4.312240       0.000000
                                                        22.230570       0.000000
                          1      14    5fx2y             0.037000       0.001309
                                                         0.055000       0.001618
                                                         0.081527       0.000375
                                                         0.231037      -0.002256
                                                         0.627002       0.002370
                                                         1.676500       0.021667
                                                         4.312240       0.000000
                                                        22.230570       0.000000
                          1      14    5fx2z             0.037000       0.001309
                                                         0.055000       0.001618
                                                         0.081527       0.000375
                                                         0.231037      -0.002256
                                                         0.627002       0.002370
                                                         1.676500       0.021667
                                                         4.312240       0.000000
                                                        22.230570       0.000000
                          1      14    5fxy2             0.037000       0.001309
                                                         0.055000       0.001618
                                                         0.081527       0.000375
                                                         0.231037      -0.002256
                                                         0.627002       0.002370
                                                         1.676500       0.021667
                                                         4.312240       0.000000
                                                        22.230570       0.000000
                          1      14    5fxyz             0.037000       0.002267
                                                         0.055000       0.002802
                                                         0.081527       0.000650
                                                         0.231037      -0.003908
                                                         0.627002       0.004105
                                                         1.676500       0.037529
                                                         4.312240       0.000000
                                                        22.230570       0.000000
                          1      14    5fxz2             0.037000       0.001309
                                                         0.055000       0.001618
                                                         0.081527       0.000375
                                                         0.231037      -0.002256
                                                         0.627002       0.002370
                                                         1.676500       0.021667
                                                         4.312240       0.000000
                                                        22.230570       0.000000
                          1      14    5fy3              0.037000       0.000585
                                                         0.055000       0.000724
                                                         0.081527       0.000168
                                                         0.231037      -0.001009
                                                         0.627002       0.001060
                                                         1.676500       0.009690
                                                         4.312240       0.000000
                                                        22.230570       0.000000
                          1      14    5fy2z             0.037000       0.001309
                                                         0.055000       0.001618
                                                         0.081527       0.000375
                                                         0.231037      -0.002256
                                                         0.627002       0.002370
                                                         1.676500       0.021667
                                                         4.312240       0.000000
                                                        22.230570       0.000000
                          1      14    5fyz2             0.037000       0.001309
                                                         0.055000       0.001618
                                                         0.081527       0.000375
                                                         0.231037      -0.002256
                                                         0.627002       0.002370
                                                         1.676500       0.021667
                                                         4.312240       0.000000
                                                        22.230570       0.000000
                          1      14    5fz3              0.037000       0.000585
                                                         0.055000       0.000724
                                                         0.081527       0.000168
                                                         0.231037      -0.001009
                                                         0.627002       0.001060
                                                         1.676500       0.009690
                                                         4.312240       0.000000
                                                        22.230570       0.000000

                          1      15    5gx4              0.037000       0.000024
                                                         0.055000       0.000028
                                                         0.081527       0.000892
                                                         0.231037       0.000285
                                                         0.627002       0.001746
                                                         1.676500       0.026101
                                                         4.312240       0.000000
                                                        22.230570       0.000000
                          1      15    5gx3y             0.037000       0.000063
                                                         0.055000       0.000074
                                                         0.081527       0.002360
                                                         0.231037       0.000753
                                                         0.627002       0.004619
                                                         1.676500       0.069058
                                                         4.312240       0.000000
                                                        22.230570       0.000000
                          1      15    5gx3z             0.037000       0.000063
                                                         0.055000       0.000074
                                                         0.081527       0.002360
                                                         0.231037       0.000753
                                                         0.627002       0.004619
                                                         1.676500       0.069058
                                                         4.312240       0.000000
                                                        22.230570       0.000000
                          1      15    5gx2y2            0.037000       0.000082
                                                         0.055000       0.000096
                                                         0.081527       0.003047
                                                         0.231037       0.000972
                                                         0.627002       0.005964
                                                         1.676500       0.089153
                                                         4.312240       0.000000
                                                        22.230570       0.000000
                          1      15    5gx2yz            0.037000       0.000141
                                                         0.055000       0.000165
                                                         0.081527       0.005277
                                                         0.231037       0.001684
                                                         0.627002       0.010329
                                                         1.676500       0.154418
                                                         4.312240       0.000000
                                                        22.230570       0.000000
                          1      15    5gx2z2            0.037000       0.000082
                                                         0.055000       0.000096
                                                         0.081527       0.003047
                                                         0.231037       0.000972
                                                         0.627002       0.005964
                                                         1.676500       0.089153
                                                         4.312240       0.000000
                                                        22.230570       0.000000
                          1      15    5gxy3             0.037000       0.000063
                                                         0.055000       0.000074
                                                         0.081527       0.002360
                                                         0.231037       0.000753
                                                         0.627002       0.004619
                                                         1.676500       0.069058
                                                         4.312240       0.000000
                                                        22.230570       0.000000
                          1      15    5gxy2z            0.037000       0.000141
                                                         0.055000       0.000165
                                                         0.081527       0.005277
                                                         0.231037       0.001684
                                                         0.627002       0.010329
                                                         1.676500       0.154418
                                                         4.312240       0.000000
                                                        22.230570       0.000000
                          1      15    5gxyz2            0.037000       0.000141
                                                         0.055000       0.000165
                                                         0.081527       0.005277
                                                         0.231037       0.001684
                                                         0.627002       0.010329
                                                         1.676500       0.154418
                                                         4.312240       0.000000
                                                        22.230570       0.000000
                          1      15    5gxz3             0.037000       0.000063
                                                         0.055000       0.000074
                                                         0.081527       0.002360
                                                         0.231037       0.000753
                                                         0.627002       0.004619
                                                         1.676500       0.069058
                                                         4.312240       0.000000
                                                        22.230570       0.000000
                          1      15    5gy4              0.037000       0.000024
                                                         0.055000       0.000028
                                                         0.081527       0.000892
                                                         0.231037       0.000285
                                                         0.627002       0.001746
                                                         1.676500       0.026101
                                                         4.312240       0.000000
                                                        22.230570       0.000000
                          1      15    5gy3z             0.037000       0.000063
                                                         0.055000       0.000074
                                                         0.081527       0.002360
                                                         0.231037       0.000753
                                                         0.627002       0.004619
                                                         1.676500       0.069058
                                                         4.312240       0.000000
                                                        22.230570       0.000000
                          1      15    5gy2z2            0.037000       0.000082
                                                         0.055000       0.000096
                                                         0.081527       0.003047
                                                         0.231037       0.000972
                                                         0.627002       0.005964
                                                         1.676500       0.089153
                                                         4.312240       0.000000
                                                        22.230570       0.000000
                          1      15    5gyz3             0.037000       0.000063
                                                         0.055000       0.000074
                                                         0.081527       0.002360
                                                         0.231037       0.000753
                                                         0.627002       0.004619
                                                         1.676500       0.069058
                                                         4.312240       0.000000
                                                        22.230570       0.000000
                          1      15    5gz4              0.037000       0.000024
                                                         0.055000       0.000028
                                                         0.081527       0.000892
                                                         0.231037       0.000285
                                                         0.627002       0.001746
                                                         1.676500       0.026101
                                                         4.312240       0.000000
                                                        22.230570       0.000000

                          2       1    1s             8564.805310       0.470718
                                                      1284.266148       1.037560
                                                       292.317852       1.564613
                                                        82.773089       2.737633
                                                        26.955680       2.121910
                                                         9.937437       2.701101

     RI Auxiliary Basis Set             RI_aug-TZVP-MOLOPT-ae_N_RI_043_s_p_d_f_g

       Number of orbital shell sets:                                          15
       Number of orbital shells:                                              15
       Number of primitive Cartesian functions:                               15
       Number of Cartesian basis functions:                                   49
       Number of spherical basis functions:                                   43
       Norm type:                                                              2

       Normalised Cartesian orbitals:

                        Set   Shell   Orbital            Exponent    Coefficient

                          1       1    7px               0.183885       0.171642
                          1       1    7py               0.183885       0.171642
                          1       1    7pz               0.183885       0.171642

                          2       1    1s                0.188062       0.203533

                          3       1   12dx2              0.253802       0.149375
                          3       1   12dxy              0.253802       0.258725
                          3       1   12dxz              0.253802       0.258725
                          3       1   12dy2              0.253802       0.149375
                          3       1   12dyz              0.253802       0.258725
                          3       1   12dz2              0.253802       0.149375

                          4       1    2s                0.312348       0.297776

                          5       1    8px               0.492458       0.588032
                          5       1    8py               0.492458       0.588032
                          5       1    8pz               0.492458       0.588032

                          6       1   13dx2              0.557654       0.592308
                          6       1   13dxy              0.557654       1.025908
                          6       1   13dxz              0.557654       1.025908
                          6       1   13dy2              0.557654       0.592308
                          6       1   13dyz              0.557654       1.025908
                          6       1   13dz2              0.557654       0.592308

                          7       1   15fx3              0.781389       0.845096
                          7       1   15fx2y             0.781389       1.889693
                          7       1   15fx2z             0.781389       1.889693
                          7       1   15fxy2             0.781389       1.889693
                          7       1   15fxyz             0.781389       3.273045
                          7       1   15fxz2             0.781389       1.889693
                          7       1   15fy3              0.781389       0.845096
                          7       1   15fy2z             0.781389       1.889693
                          7       1   15fyz2             0.781389       1.889693
                          7       1   15fz3              0.781389       0.845096

                          8       1    3s                0.975357       0.699492

                          9       1   14dx2              1.149111       2.099147
                          9       1   14dxy              1.149111       3.635830
                          9       1   14dxz              1.149111       3.635830
                          9       1   14dy2              1.149111       2.099147
                          9       1   14dyz              1.149111       3.635830
                          9       1   14dz2              1.149111       2.099147

                         10       1    9px               1.192376       1.776056
                         10       1    9py               1.192376       1.776056
                         10       1    9pz               1.192376       1.776056

                         11       1    4s                3.431731       1.796987

                         12       1   10px               3.944602       7.923994
                         12       1   10py               3.944602       7.923994
                         12       1   10pz               3.944602       7.923994

                         13       1   11px              12.228611      32.595790
                         13       1   11py              12.228611      32.595790
                         13       1   11pz              12.228611      32.595790

                         14       1    5s               12.764133       4.812864

                         15       1    6s               46.239591      12.637774

       Atomic covalent radius [Angstrom]:                                  0.820

       Atomic van der Waals radius [Angstrom]:                             1.920

     The atoms of this atomic kind are PAW atoms (GAPW):
       Hard Gaussian function radius:                                      1.512
       Rho0 radius:                                                        1.512
       Maximum GTO radius used for PAW projector construction:            24.566

     GAPW Soft Basis Set                                 aug-TZVP-MOLOPT-ae_soft

       Number of orbital shell sets:                                           2
       Number of orbital shells:                                              16
       Number of primitive Cartesian functions:                                7
       Number of Cartesian basis functions:                                   71
       Number of spherical basis functions:                                   56
       Norm type:                                                              2

       Normalised Cartesian orbitals:

                        Set   Shell   Orbital            Exponent    Coefficient

                          1       1    1s                0.037000       0.000000
                                                         0.055000       0.000000
                                                         0.081527       0.004479
                                                         0.231037       0.004596
                                                         0.627002      -0.034128
                                                         1.676500       0.393631
                                                         4.312240       0.000000

                          1       2    2s                0.037000       0.000000
                                                         0.055000       0.000000
                                                         0.081527       0.019156
                                                         0.231037       0.063291
                                                         0.627002       0.285761
                                                         1.676500       0.111410
                                                         4.312240       0.000000

                          1       3    3s                0.037000       0.000000
                                                         0.055000       0.000000
                                                         0.081527       0.006030
                                                         0.231037       0.332555
                                                         0.627002      -0.285066
                                                         1.676500      -0.419641
                                                         4.312240       0.000000

                          1       4    4s                0.037000       0.000000
                                                         0.055000       0.000000
                                                         0.081527       0.125733
                                                         0.231037      -0.011328
                                                         0.627002      -0.219216
                                                         1.676500       0.322739
                                                         4.312240       0.000000

                          1       5    5s                0.037000       0.231931
                                                         0.055000      -0.273497
                                                         0.081527       0.006948
                                                         0.231037      -0.015074
                                                         0.627002       0.038509
                                                         1.676500       0.007320
                                                         4.312240       0.000000

                          1       6    2px               0.037000       0.000000
                                                         0.055000       0.000000
                                                         0.081527       0.001696
                                                         0.231037       0.008046
                                                         0.627002       0.466960
                                                         1.676500       0.900411
                                                         4.312240       0.000000
                          1       6    2py               0.037000       0.000000
                                                         0.055000       0.000000
                                                         0.081527       0.001696
                                                         0.231037       0.008046
                                                         0.627002       0.466960
                                                         1.676500       0.900411
                                                         4.312240       0.000000
                          1       6    2pz               0.037000       0.000000
                                                         0.055000       0.000000
                                                         0.081527       0.001696
                                                         0.231037       0.008046
                                                         0.627002       0.466960
                                                         1.676500       0.900411
                                                         4.312240       0.000000

                          1       7    3px               0.037000       0.000000
                                                         0.055000       0.000000
                                                         0.081527      -0.002807
                                                         0.231037       0.232786
                                                         0.627002       0.042448
                                                         1.676500      -0.296803
                                                         4.312240       0.000000
                          1       7    3py               0.037000       0.000000
                                                         0.055000       0.000000
                                                         0.081527      -0.002807
                                                         0.231037       0.232786
                                                         0.627002       0.042448
                                                         1.676500      -0.296803
                                                         4.312240       0.000000
                          1       7    3pz               0.037000       0.000000
                                                         0.055000       0.000000
                                                         0.081527      -0.002807
                                                         0.231037       0.232786
                                                         0.627002       0.042448
                                                         1.676500      -0.296803
                                                         4.312240       0.000000

                          1       8    4px               0.037000       0.000000
                                                         0.055000       0.000000
                                                         0.081527       0.060026
                                                         0.231037       0.011408
                                                         0.627002       0.008231
                                                         1.676500      -0.436837
                                                         4.312240       0.000000
                          1       8    4py               0.037000       0.000000
                                                         0.055000       0.000000
                                                         0.081527       0.060026
                                                         0.231037       0.011408
                                                         0.627002       0.008231
                                                         1.676500      -0.436837
                                                         4.312240       0.000000
                          1       8    4pz               0.037000       0.000000
                                                         0.055000       0.000000
                                                         0.081527       0.060026
                                                         0.231037       0.011408
                                                         0.627002       0.008231
                                                         1.676500      -0.436837
                                                         4.312240       0.000000

                          1       9    5px               0.037000       0.000467
                                                         0.055000      -0.024055
                                                         0.081527      -0.022149
                                                         0.231037      -0.019624
                                                         0.627002       0.043495
                                                         1.676500       0.050078
                                                         4.312240       0.000000
                          1       9    5py               0.037000       0.000467
                                                         0.055000      -0.024055
                                                         0.081527      -0.022149
                                                         0.231037      -0.019624
                                                         0.627002       0.043495
                                                         1.676500       0.050078
                                                         4.312240       0.000000
                          1       9    5pz               0.037000       0.000467
                                                         0.055000      -0.024055
                                                         0.081527      -0.022149
                                                         0.231037      -0.019624
                                                         0.627002       0.043495
                                                         1.676500       0.050078
                                                         4.312240       0.000000

                          1      10    3dx2              0.037000       0.000000
                                                         0.055000       0.000000
                                                         0.081527       0.002153
                                                         0.231037       0.011346
                                                         0.627002       0.387577
                                                         1.676500       2.056214
                                                         4.312240      -1.635688
                          1      10    3dxy              0.037000       0.000000
                                                         0.055000       0.000000
                                                         0.081527       0.003728
                                                         0.231037       0.019651
                                                         0.627002       0.671303
                                                         1.676500       3.561468
                                                         4.312240      -2.833095
                          1      10    3dxz              0.037000       0.000000
                                                         0.055000       0.000000
                                                         0.081527       0.003728
                                                         0.231037       0.019651
                                                         0.627002       0.671303
                                                         1.676500       3.561468
                                                         4.312240      -2.833095
                          1      10    3dy2              0.037000       0.000000
                                                         0.055000       0.000000
                                                         0.081527       0.002153
                                                         0.231037       0.011346
                                                         0.627002       0.387577
                                                         1.676500       2.056214
                                                         4.312240      -1.635688
                          1      10    3dyz              0.037000       0.000000
                                                         0.055000       0.000000
                                                         0.081527       0.003728
                                                         0.231037       0.019651
[...]
   418 Broy./Diag. 0.10E+00    5.9     0.05169583       -49.2330656182  5.59E-02
   419 Broy./Diag. 0.10E+00    5.9     0.09026679       -49.2075230598  2.55E-02
   420 Broy./Diag. 0.10E+00    6.0     0.15714872       -49.2368424263 -2.93E-02
   421 Broy./Diag. 0.10E+00    5.9     0.06482020       -49.2656220927 -2.88E-02
   422 Broy./Diag. 0.10E+00    6.0     0.03956383       -49.2562506495  9.37E-03
   423 Broy./Diag. 0.10E+00    6.0     0.01372787       -49.2560757414  1.75E-04
   424 Broy./Diag. 0.10E+00    6.0     0.04966694       -49.2931645633 -3.71E-02
   425 Broy./Diag. 0.10E+00    6.0     0.04834246       -49.3171365689 -2.40E-02
   426 Broy./Diag. 0.10E+00    6.0     0.02601551       -49.3218563179 -4.72E-03
   427 Broy./Diag. 0.10E+00    6.1     0.01870305       -49.3300902980 -8.23E-03
   428 Broy./Diag. 0.10E+00    6.0     0.00989160       -49.3240923035  6.00E-03
   429 Broy./Diag. 0.10E+00    6.0     0.00529044       -49.3189546265  5.14E-03
   430 Broy./Diag. 0.10E+00    6.0     0.00254851       -49.3185087466  4.46E-04
   431 Broy./Diag. 0.10E+00    6.0     0.01355483       -49.3128665345  5.64E-03
   432 Broy./Diag. 0.10E+00    6.0     0.00626681       -49.3014286653  1.14E-02
   433 Broy./Diag. 0.10E+00    6.0     0.00792451       -49.2955974035  5.83E-03
   434 Broy./Diag. 0.10E+00    6.0     0.01093039       -49.2908918716  4.71E-03
   435 Broy./Diag. 0.10E+00    6.0     0.01195395       -49.2881093083  2.78E-03
   436 Broy./Diag. 0.10E+00    6.0     0.02380681       -49.2848444447  3.26E-03
   437 Broy./Diag. 0.10E+00    6.0     0.02691285       -49.2829281062  1.92E-03
   438 Broy./Diag. 0.10E+00    6.0     0.03126614       -49.2831836646 -2.56E-04
   439 Broy./Diag. 0.10E+00    6.0     0.03495369       -49.2790169166  4.17E-03
   440 Broy./Diag. 0.10E+00    6.0     0.03119695       -49.2749988667  4.02E-03
   441 Broy./Diag. 0.10E+00    6.0     0.02190756       -49.2683961271  6.60E-03
   442 Broy./Diag. 0.10E+00    6.0     0.02012256       -49.2666611547  1.73E-03
   443 Broy./Diag. 0.10E+00    6.0     0.01800139       -49.2641727797  2.49E-03
   444 Broy./Diag. 0.10E+00    6.0     0.01530483       -49.2620353696  2.14E-03
   445 Broy./Diag. 0.10E+00    6.0     0.02174985       -49.2549255363  7.11E-03
   446 Broy./Diag. 0.10E+00    6.0     0.02080485       -49.2508526801  4.07E-03
   447 Broy./Diag. 0.10E+00    6.0     0.05661307       -49.2685660780 -1.77E-02
   448 Broy./Diag. 0.10E+00    6.0     0.02908530       -49.2817380053 -1.32E-02
   449 Broy./Diag. 0.10E+00    6.0     0.04190937       -49.2769495552  4.79E-03
   450 Broy./Diag. 0.10E+00    6.0     0.04177969       -49.2678726461  9.08E-03
   451 Broy./Diag. 0.10E+00    5.9     0.02919541       -49.2588239906  9.05E-03
   452 Broy./Diag. 0.10E+00    6.0     0.04374280       -49.2845805927 -2.58E-02
   453 Broy./Diag. 0.10E+00    5.9     0.02300001       -49.2885292412 -3.95E-03
   454 Broy./Diag. 0.10E+00    6.0     0.02962301       -49.2893700450 -8.41E-04
   455 Broy./Diag. 0.10E+00    6.0     0.11386716       -49.2420744550  4.73E-02
   456 Broy./Diag. 0.10E+00    6.0     0.13319327       -49.2106166960  3.15E-02
   457 Broy./Diag. 0.10E+00    6.0     0.03745917       -49.1890120061  2.16E-02
   458 Broy./Diag. 0.10E+00    6.0     0.03697496       -49.2076088565 -1.86E-02
   459 Broy./Diag. 0.10E+00    5.9     0.03214680       -49.1981502527  9.46E-03
   460 Broy./Diag. 0.10E+00    6.1     0.02515333       -49.1869129144  1.12E-02
   461 Broy./Diag. 0.10E+00    5.9     0.03254741       -49.2001510407 -1.32E-02
   462 Broy./Diag. 0.10E+00    5.9     0.01985326       -49.2187923592 -1.86E-02
   463 Broy./Diag. 0.10E+00    6.0     0.06419312       -49.1996035534  1.92E-02
   464 Broy./Diag. 0.10E+00    5.9     0.02892623       -49.1575762070  4.20E-02
   465 Broy./Diag. 0.10E+00    6.0     0.02368049       -49.1424909306  1.51E-02
   466 Broy./Diag. 0.10E+00    5.9     0.01762227       -49.1372877226  5.20E-03
   467 Broy./Diag. 0.10E+00    6.0     0.05412028       -49.1767054190 -3.94E-02
   468 Broy./Diag. 0.10E+00    6.0     0.03507215       -49.1616300394  1.51E-02
   469 Broy./Diag. 0.10E+00    6.0     0.03764110       -49.1005991161  6.10E-02
   470 Broy./Diag. 0.10E+00    6.0     0.04493650       -49.0951396316  5.46E-03
   471 Broy./Diag. 0.10E+00    6.0     0.03618223       -49.1386590803 -4.35E-02
   472 Broy./Diag. 0.10E+00    6.0     0.01432710       -49.1772558062 -3.86E-02
   473 Broy./Diag. 0.10E+00    6.0     0.04040845       -49.1786326588 -1.38E-03
   474 Broy./Diag. 0.10E+00    6.0     0.05626011       -49.2130434346 -3.44E-02
   475 Broy./Diag. 0.10E+00    6.0     0.05750156       -49.2144327320 -1.39E-03
   476 Broy./Diag. 0.10E+00    6.0     0.03940381       -49.1912534319  2.32E-02
   477 Broy./Diag. 0.10E+00    6.0     0.02957671       -49.1875141710  3.74E-03
   478 Broy./Diag. 0.10E+00    6.1     0.03451496       -49.1381571995  4.94E-02
   479 Broy./Diag. 0.10E+00    6.0     0.03019156       -49.1137954392  2.44E-02
   480 Broy./Diag. 0.10E+00    6.0     0.02082900       -49.1055311915  8.26E-03
   481 Broy./Diag. 0.10E+00    6.0     0.03067540       -49.0969328691  8.60E-03
   482 Broy./Diag. 0.10E+00    6.1     0.03702517       -49.1063819576 -9.45E-03
   483 Broy./Diag. 0.10E+00    6.0     0.01812252       -49.1206934665 -1.43E-02
   484 Broy./Diag. 0.10E+00    6.0     0.02556033       -49.1177898694  2.90E-03
   485 Broy./Diag. 0.10E+00    6.0     0.03205420       -49.1186906556 -9.01E-04
   486 Broy./Diag. 0.10E+00    6.1     0.04905622       -49.1320897057 -1.34E-02
   487 Broy./Diag. 0.10E+00    6.0     0.11634101       -49.1903423340 -5.83E-02
   488 Broy./Diag. 0.10E+00    6.0     0.02926648       -49.1965792568 -6.24E-03
   489 Broy./Diag. 0.10E+00    6.0     0.01708442       -49.2052574125 -8.68E-03
   490 Broy./Diag. 0.10E+00    6.0     0.01360807       -49.2068577932 -1.60E-03
   491 Broy./Diag. 0.10E+00    6.0     0.00738804       -49.2230137462 -1.62E-02
   492 Broy./Diag. 0.10E+00    6.0     0.00878360       -49.2665036205 -4.35E-02
   493 Broy./Diag. 0.10E+00    6.0     0.04050262       -49.2724408076 -5.94E-03
   494 Broy./Diag. 0.10E+00    6.0     0.02629243       -49.2923600048 -1.99E-02
   495 Broy./Diag. 0.10E+00    6.0     0.01420632       -49.3015928657 -9.23E-03
   496 Broy./Diag. 0.10E+00    6.0     0.01357415       -49.3022424709 -6.50E-04
   497 Broy./Diag. 0.10E+00    6.0     0.01430039       -49.3008515039  1.39E-03
   498 Broy./Diag. 0.10E+00    6.0     0.02316091       -49.3053715905 -4.52E-03
   499 Broy./Diag. 0.10E+00    6.0     0.03186186       -49.3083766578 -3.01E-03
   500 Broy./Diag. 0.10E+00    6.0     0.03530880       -49.3000757888  8.30E-03

  Leaving inner SCF loop after reaching   500 steps.


  Electronic density on regular grids:         -6.2807690201        3.7192309799
  Core density on regular grids:               10.0000000000        0.0000000000
  Hard and soft densities (Lebedev):          -31.7199957096      -28.0124853405
  Total Rho_soft + Rho1_hard - Rho1_soft       -9.9882793893
  Total charge density (r-space):               0.0117206107
  Total Rho_soft + Rho0_soft (g-space):         0.0117205498

  Overlap energy of the core charge distribution:               0.00000845868521
  Self energy of the core charge distribution:                -32.50467561761386
  Core Hamiltonian energy:                                    -13.42309887133310
  Hartree energy:                                              11.43299595691308
  Exchange-correlation energy:                                 -1.50420216258874
  Hartree-Fock Exchange energy:                                -1.87982686322939

  GAPW| Exc from hard and soft atomic rho1:                    -4.39980420050242
  GAPW| local Eh = 1 center integrals:                         -7.02147248913673

  Total energy:                                               -49.30007578880593

 *******************************************************************************
 *   ___                                                                       *
 *  /   \                                                                      *
 * [ABORT]                                                                     *
 *  \___/     SCF run NOT converged. To continue the calculation regardless,   *
 *    |             please set the keyword IGNORE_CONVERGENCE_FAILURE.         *
 *  O/|                                                                        *
 * /| |                                                                        *
 * / \                                                            qs_scf.F:611 *
 *******************************************************************************


 ===== Routine Calling Stack ===== 

            3 scf_env_do_scf
            2 qs_energies
            1 CP2K

 *******************************************************************************
 *   ___                                                                       *
 *  /   \                                                                      *
 * [ABORT]                                                                     *
 *  \___/     SCF run NOT converged. To continue the calculation regardless,   *
 *    |             please set the keyword IGNORE_CONVERGENCE_FAILURE.         *
 *  O/|                                                                        *
 * /| |                                                                        *
 * / \                                                            qs_scf.F:611 *
 *******************************************************************************


 ===== Routine Calling Stack ===== 

            3 scf_env_do_scf
            2 qs_energies
            1 CP2K

 *******************************************************************************
 *   ___                                                                       *
 *  /   \                                                                      *
 * [ABORT]                                                                     *
 *  \___/     SCF run NOT converged. To continue the calculation regardless,   *
 *    |             please set the keyword IGNORE_CONVERGENCE_FAILURE.         *
 *  O/|                                                                        *
 * /| |                                                                        *
 * / \                                                            qs_scf.F:611 *
 *******************************************************************************


 ===== Routine Calling Stack ===== 

            3 scf_env_do_scf
            2 qs_energies
            1 CP2K

 *******************************************************************************
 *   ___                                                                       *
 *  /   \                                                                      *
 * [ABORT]                                                                     *
 *  \___/     SCF run NOT converged. To continue the calculation regardless,   *
 *    |             please set the keyword IGNORE_CONVERGENCE_FAILURE.         *
 *  O/|                                                                        *
 * /| |                                                                        *
 * / \                                                            qs_scf.F:611 *
 *******************************************************************************


 ===== Routine Calling Stack ===== 

            3 scf_env_do_scf
            2 qs_energies
            1 CP2K

 *******************************************************************************
 *   ___                                                                       *
 *  /   \                                                                      *
 * [ABORT]                                                                     *
 *  \___/     SCF run NOT converged. To continue the calculation regardless,   *
 *    |             please set the keyword IGNORE_CONVERGENCE_FAILURE.         *
 *  O/|                                                                        *
 * /| |                                                                        *
 * / \                                                            qs_scf.F:611 *
 *******************************************************************************


 ===== Routine Calling Stack ===== 

            3 scf_env_do_scf
            2 qs_energies
            1 CP2K

 *******************************************************************************
 *   ___                                                                       *
 *  /   \                                                                      *
 * [ABORT]                                                                     *
 *  \___/     SCF run NOT converged. To continue the calculation regardless,   *
 *    |             please set the keyword IGNORE_CONVERGENCE_FAILURE.         *
 *  O/|                                                                        *
 * /| |                                                                        *
 * / \                                                            qs_scf.F:611 *
 *******************************************************************************


 ===== Routine Calling Stack ===== 

            3 scf_env_do_scf
            2 qs_energies
            1 CP2K

 *******************************************************************************
 *   ___                                                                       *
 *  /   \                                                                      *
 * [ABORT]                                                                     *
 *  \___/     SCF run NOT converged. To continue the calculation regardless,   *
 *    |             please set the keyword IGNORE_CONVERGENCE_FAILURE.         *
 *  O/|                                                                        *
 * /| |                                                                        *
 * / \                                                            qs_scf.F:611 *
 *******************************************************************************


 ===== Routine Calling Stack ===== 

            3 scf_env_do_scf
            2 qs_energies
            1 CP2K

 *******************************************************************************
 *   ___                                                                       *
 *  /   \                                                                      *
 * [ABORT]                                                                     *
 *  \___/     SCF run NOT converged. To continue the calculation regardless,   *
 *    |             please set the keyword IGNORE_CONVERGENCE_FAILURE.         *
 *  O/|                                                                        *
 * /| |                                                                        *
 * / \                                                            qs_scf.F:611 *
 *******************************************************************************


 ===== Routine Calling Stack ===== 

            3 scf_env_do_scf
            2 qs_energies
            1 CP2K

 *******************************************************************************
 *   ___                                                                       *
 *  /   \                                                                      *
 * [ABORT]                                                                     *
 *  \___/     SCF run NOT converged. To continue the calculation regardless,   *
 *    |             please set the keyword IGNORE_CONVERGENCE_FAILURE.         *
 *  O/|                                                                        *
 * /| |                                                                        *
 * / \                                                            qs_scf.F:611 *
 *******************************************************************************


 ===== Routine Calling Stack ===== 

            3 scf_env_do_scf
            2 qs_energies
            1 CP2K

 *******************************************************************************
 *   ___                                                                       *
 *  /   \                                                                      *
 * [ABORT]                                                                     *
 *  \___/     SCF run NOT converged. To continue the calculation regardless,   *
 *    |             please set the keyword IGNORE_CONVERGENCE_FAILURE.         *
 *  O/|                                                                        *
 * /| |                                                                        *
 * / \                                                            qs_scf.F:611 *
 *******************************************************************************


 ===== Routine Calling Stack ===== 

            3 scf_env_do_scf
            2 qs_energies
            1 CP2K

 *******************************************************************************
 *   ___                                                                       *
 *  /   \                                                                      *
 * [ABORT]                                                                     *
 *  \___/     SCF run NOT converged. To continue the calculation regardless,   *
 *    |             please set the keyword IGNORE_CONVERGENCE_FAILURE.         *
 *  O/|                                                                        *
 * /| |                                                                        *
 * / \                                                            qs_scf.F:611 *
 *******************************************************************************


 ===== Routine Calling Stack ===== 

            3 scf_env_do_scf
            2 qs_energies
            1 CP2K

 *******************************************************************************
 *   ___                                                                       *
 *  /   \                                                                      *
 * [ABORT]                                                                     *
 *  \___/     SCF run NOT converged. To continue the calculation regardless,   *
 *    |             please set the keyword IGNORE_CONVERGENCE_FAILURE.         *
 *  O/|                                                                        *
 * /| |                                                                        *
 * / \                                                            qs_scf.F:611 *
 *******************************************************************************


 ===== Routine Calling Stack ===== 

            3 scf_env_do_scf
            2 qs_energies
            1 CP2K

 *******************************************************************************
 *   ___                                                                       *
 *  /   \                                                                      *
 * [ABORT]                                                                     *
 *  \___/     SCF run NOT converged. To continue the calculation regardless,   *
 *    |             please set the keyword IGNORE_CONVERGENCE_FAILURE.         *
 *  O/|                                                                        *
 * /| |                                                                        *
 * / \                                                            qs_scf.F:611 *
 *******************************************************************************


 ===== Routine Calling Stack ===== 

            3 scf_env_do_scf
            2 qs_energies
            1 CP2K
