 DBCSR| CPU Multiplication driver                                           BLAS (U)
 DBCSR| Multrec recursion limit                                              512 (U)
 DBCSR| Multiplication stack size                                           1000 (D)
 DBCSR| Maximum elements for images                                    UNLIMITED (U)
 DBCSR| Multiplicative factor virtual images                                   1 (U)
 DBCSR| Use multiplication densification                                       T (D)
 DBCSR| Multiplication size stacks                                             3 (U)
 DBCSR| Use memory pool for CPU allocation                                     F (U)
 DBCSR| Number of 3D layers                                               SINGLE (U)
 DBCSR| Use MPI memory allocation                                              F (U)
 DBCSR| Use RMA algorithm                                                      F (U)
 DBCSR| Use Communication thread                                               T (U)
 DBCSR| Communication thread load                                             75 (D)
 DBCSR| MPI: My process id                                                     0
 DBCSR| MPI: Number of processes                                              24
 DBCSR| OMP: Current number of threads                                         4
 DBCSR| OMP: Max number of threads                                             4
 DBCSR| Split modifier for TAS multiplication algorithm                  1.0E+00 (U)


  **** **** ******  **  PROGRAM STARTED AT               2025-03-16 12:16:06.196
 ***** ** ***  *** **   PROGRAM STARTED ON                          i01r11c05s11
 **    ****   ******    PROGRAM STARTED BY                               di38fab
 ***** **    ** ** **   PROGRAM PROCESS ID                                756107
  **** **  *******  **  PROGRAM STARTED IN /hppfs/scratch/04/di38fab/05_MOL/W4-1
                                           1+ALK/li_h/DZVP/GW+BSE/1e-3

 CP2K| version string:                 CP2K version 2025.1 (Development Version)
 CP2K| source code revision number:                                  git:d2e611a
 CP2K| cp2kflags: omp libint fftw3 libxc parallel scalapack max_contr=4         
 CP2K| is freely available from                            https://www.cp2k.org/
 CP2K| Program compiled at                       Thu 06 Mar 2025 05:09:20 PM CET
 CP2K| Program compiled on                                               login02
 CP2K| Program compiled for                                        Supermuc-foss
 CP2K| Data directory path                  /hppfs/work/pn36zo/di38fab/cp2k/data
 CP2K| Input file name                                                    GW.inp

 GLOBAL| Force Environment number                                              1
 GLOBAL| Basis set file name            /hppfs/scratch/04/di38fab/04_TMD/BASIS_A
 GLOBAL| Potential file name            /hppfs/work/pn36zo/di38fab/cp2k/data/ALL
 GLOBAL| MM Potential file name                                     MM_POTENTIAL
 GLOBAL| Coordinate file name                                      __STD_INPUT__
 GLOBAL| Method name                                                        CP2K
 GLOBAL| Project name                                                       MoS2
 GLOBAL| Run type                                                         ENERGY
 GLOBAL| FFT library                                                       FFTW3
 GLOBAL| Diagonalization library                                       ScaLAPACK
 GLOBAL| DGEMM library                                                      BLAS
 GLOBAL| Orthonormality check for eigenvectors                          DISABLED
 GLOBAL| Matrix multiplication library                                 ScaLAPACK
 GLOBAL| All-to-all communication in single precision                          F
 GLOBAL| FFTs using library dependent lengths                                  F
 GLOBAL| Grid backend                                                       AUTO
 GLOBAL| Global print level                                               MEDIUM
 GLOBAL| MPI I/O enabled                                                       T
 GLOBAL| Total number of message passing processes                            24
 GLOBAL| Number of threads for this process                                    4
 GLOBAL| This output is from process                                           0
 GLOBAL| OpenMP stack size per thread (OMP_STACKSIZE)                    default
 GLOBAL| CPU model name             Intel(R) Xeon(R) Platinum 8174 CPU @ 3.10GHz

 MEMORY| system memory details [Kb]
 MEMORY|                        rank 0           min           max       average
 MEMORY| MemTotal             98436664      98436664      98436664      98436664
 MEMORY| MemFree              83883504      83883504      84003380      83943442
 MEMORY| Buffers                     0             0             0             0
 MEMORY| Cached                2410368       2410368       2417256       2413812
 MEMORY| Slab                  1256124       1225812       1256124       1240968
 MEMORY| SReclaimable           271120        271120        277860        274490
 MEMORY| MemLikelyFree        86564992      86564992      86698496      86631744


 *** Fundamental physical constants (SI units) ***

 *** Literature: B. J. Mohr and B. N. Taylor,
 ***             CODATA recommended values of the fundamental physical
 ***             constants: 2006, Web Version 5.1
 ***             http://physics.nist.gov/constants

 Speed of light in vacuum [m/s]                             2.99792458000000E+08
 Magnetic constant or permeability of vacuum [N/A**2]       1.25663706143592E-06
 Electric constant or permittivity of vacuum [F/m]          8.85418781762039E-12
 Planck constant (h) [J*s]                                  6.62606896000000E-34
 Planck constant (h-bar) [J*s]                              1.05457162825177E-34
 Elementary charge [C]                                      1.60217648700000E-19
 Electron mass [kg]                                         9.10938215000000E-31
 Electron g factor [ ]                                     -2.00231930436220E+00
 Proton mass [kg]                                           1.67262163700000E-27
 Fine-structure constant                                    7.29735253760000E-03
 Rydberg constant [1/m]                                     1.09737315685270E+07
 Avogadro constant [1/mol]                                  6.02214179000000E+23
 Boltzmann constant [J/K]                                   1.38065040000000E-23
 Atomic mass unit [kg]                                      1.66053878200000E-27
 Bohr radius [m]                                            5.29177208590000E-11

 *** Conversion factors ***

 [u] -> [a.u.]                                              1.82288848426455E+03
 [Angstrom] -> [Bohr] = [a.u.]                              1.88972613288564E+00
 [a.u.] = [Bohr] -> [Angstrom]                              5.29177208590000E-01
 [a.u.] -> [s]                                              2.41888432650478E-17
 [a.u.] -> [fs]                                             2.41888432650478E-02
 [a.u.] -> [J]                                              4.35974393937059E-18
 [a.u.] -> [N]                                              8.23872205491840E-08
 [a.u.] -> [K]                                              3.15774647902944E+05
 [a.u.] -> [kJ/mol]                                         2.62549961709828E+03
 [a.u.] -> [kcal/mol]                                       6.27509468713739E+02
 [a.u.] -> [Pa]                                             2.94210107994716E+13
 [a.u.] -> [bar]                                            2.94210107994716E+08
 [a.u.] -> [atm]                                            2.90362800883016E+08
 [a.u.] -> [eV]                                             2.72113838565563E+01
 [a.u.] -> [Hz]                                             6.57968392072181E+15
 [a.u.] -> [1/cm] (wave numbers)                            2.19474631370540E+05
 [a.u./Bohr**2] -> [1/cm]                                   5.14048714338585E+03
 

 CELL_TOP| Volume [angstrom^3]:                                     27000.000000
 CELL_TOP| Vector a [angstrom    30.000     0.000     0.000   |a| =    30.000000
 CELL_TOP| Vector b [angstrom     0.000    30.000     0.000   |b| =    30.000000
 CELL_TOP| Vector c [angstrom     0.000     0.000    30.000   |c| =    30.000000
 CELL_TOP| Angle (b,c), alpha [degree]:                                90.000000
 CELL_TOP| Angle (a,c), beta  [degree]:                                90.000000
 CELL_TOP| Angle (a,b), gamma [degree]:                                90.000000
 CELL_TOP| Numerically orthorhombic:                                         YES
 CELL_TOP| Periodicity                                                      NONE

 GENERATE|  Preliminary Number of Bonds generated:                             0
 GENERATE|  Achieved consistency in connectivity generation.

 CELL| Volume [angstrom^3]:                                         27000.000000
 CELL| Vector a [angstrom]:      30.000     0.000     0.000   |a| =    30.000000
 CELL| Vector b [angstrom]:       0.000    30.000     0.000   |b| =    30.000000
 CELL| Vector c [angstrom]:       0.000     0.000    30.000   |c| =    30.000000
 CELL| Angle (b,c), alpha [degree]:                                    90.000000
 CELL| Angle (a,c), beta  [degree]:                                    90.000000
 CELL| Angle (a,b), gamma [degree]:                                    90.000000
 CELL| Numerically orthorhombic:                                             YES
 CELL| Periodicity                                                          NONE

 CELL_REF| Volume [angstrom^3]:                                     27000.000000
 CELL_REF| Vector a [angstrom    30.000     0.000     0.000   |a| =    30.000000
 CELL_REF| Vector b [angstrom     0.000    30.000     0.000   |b| =    30.000000
 CELL_REF| Vector c [angstrom     0.000     0.000    30.000   |c| =    30.000000
 CELL_REF| Angle (b,c), alpha [degree]:                                90.000000
 CELL_REF| Angle (a,c), beta  [degree]:                                90.000000
 CELL_REF| Angle (a,b), gamma [degree]:                                90.000000
 CELL_REF| Numerically orthorhombic:                                         YES
 CELL_REF| Periodicity                                                      NONE

 *******************************************************************************
 *******************************************************************************
 **                                                                           **
 **     #####                         ##              ##                      **
 **    ##   ##            ##          ##              ##                      **
 **   ##     ##                       ##            ######                    **
 **   ##     ##  ##   ##  ##   #####  ##  ##   ####   ##    #####    #####    **
 **   ##     ##  ##   ##  ##  ##      ## ##   ##      ##   ##   ##  ##   ##   **
 **   ##  ## ##  ##   ##  ##  ##      ####     ###    ##   ######   ######    **
 **    ##  ###   ##   ##  ##  ##      ## ##      ##   ##   ##       ##        **
 **     #######   #####   ##   #####  ##  ##  ####    ##    #####   ##        **
 **           ##                                                    ##        **
 **                                                                           **
 **                                                ... make the atoms dance   **
 **                                                                           **
 **            Copyright (C) by CP2K developers group (2000-2025)             **
 **                      J. Chem. Phys. 152, 194103 (2020)                    **
 **                                                                           **
 *******************************************************************************

 DFT| Spin restricted Kohn-Sham (RKS) calculation                            RKS
 DFT| Multiplicity                                                             1
 DFT| Number of spin states                                                    1
 DFT| Charge                                                                   0
 DFT| Self-interaction correction (SIC)                                       NO
 DFT| Cutoffs: density                                              1.000000E-10
 DFT|          gradient                                             1.000000E-10
 DFT|          tau                                                  1.000000E-10
 DFT|          cutoff_smoothing_range                               0.000000E+00
 DFT| XC density smoothing                                                  NONE
 DFT| XC derivatives                                                          PW

 FUNCTIONAL| PBE:
 FUNCTIONAL| J.P.Perdew, K.Burke, M.Ernzerhof, Phys. Rev. Letter, vol. 77, n 18,
 FUNCTIONAL|  pp. 3865-3868, (1996)sx=0.750sc=1.000{spin unpolarized}           


 QS| Method:                                                                GAPW
 QS| Density plane wave grid type                        NON-SPHERICAL FULLSPACE
 QS| Number of grid levels:                                                    4
 QS| Density cutoff [a.u.]:                                                250.0
 QS| Multi grid cutoff [a.u.]: 1) grid level                               250.0
 QS|                           2) grid level                                83.3
 QS|                           3) grid level                                27.8
 QS|                           4) grid level                                 9.3
 QS| Grid level progression factor:                                          3.0
 QS| Relative density cutoff [a.u.]:                                        50.0
 QS| Interaction thresholds: eps_pgf_orb:                                1.0E-12
 QS|                         eps_filter_matrix:                          0.0E+00
 QS|                         eps_core_charge:                            1.0E-14
 QS|                         eps_rho_gspace:                             1.0E-12
 QS|                         eps_rho_rspace:                             1.0E-12
 QS|                         eps_gvg_rspace:                             1.0E-06
 QS|                         eps_ppl:                                    1.0E-02
 QS|                         eps_ppnl:                                   1.0E-08
 QS| GAPW|      One center basis from orbital basis primitives
 QS| GAPW|                   eps_fit:                                    1.0E-04
 QS| GAPW|                   eps_iso:                                    1.0E-12
 QS| GAPW|                   eps_svd:                                    1.0E-08
 QS| GAPW|                   eps_cpc:                                    1.0E-12
 QS| GAPW|   atom-r-grid: quadrature:                                     GC_LOG
 QS| GAPW|      atom-s-grid:  max l :                                          4
 QS| GAPW|      max_l_rho0 :                                                   2


 ATOMIC KIND INFORMATION

  1. Atomic kind: li                                    Number of atoms:       1

     Orbital Basis Set                                        aug-DZVP-MOLOPT-ae

       Number of orbital shell sets:                                           2
       Number of orbital shells:                                               8
       Number of primitive Cartesian functions:                               12
       Number of Cartesian basis functions:                                   19
       Number of spherical basis functions:                                   18
       Norm type:                                                              2

       Normalised Cartesian orbitals:

                        Set   Shell   Orbital            Exponent    Coefficient

                          1       1    1s              266.127173       0.337010
                                                        30.791085       0.645213
                                                         6.513909       0.731982
                                                         1.822796       0.505979
                                                         0.563425       0.128977
                                                         0.074745       0.017289
                                                         0.024840       0.003709

                          1       2    2s              266.127173       2.311979
                                                        30.791085      -4.206435
                                                         6.513909       2.484375
                                                         1.822796      -0.843164
                                                         0.563425      -0.005845
                                                         0.074745       0.170244
                                                         0.024840      -0.066060

                          1       3    3s              266.127173      -0.399777
                                                        30.791085       0.435493
                                                         6.513909      -0.539074
                                                         1.822796      -0.095833
                                                         0.563425      -0.093731
                                                         0.074745       0.056044
                                                         0.024840       0.024271

                          2       1    1s                0.029000       0.145227
                                                         0.048794      -0.168155
                                                         0.100000      -0.048428
                                                         0.223369       0.023674
                                                         1.213190       0.014068

                          2       2    2px               0.029000       0.000000
                                                         0.048794       0.017982
                                                         0.100000       0.000000
                                                         0.223369       0.120231
                                                         1.213190       0.214757
                          2       2    2py               0.029000       0.000000
                                                         0.048794       0.017982
                                                         0.100000       0.000000
                                                         0.223369       0.120231
                                                         1.213190       0.214757
                          2       2    2pz               0.029000       0.000000
                                                         0.048794       0.017982
                                                         0.100000       0.000000
                                                         0.223369       0.120231
                                                         1.213190       0.214757

                          2       3    3px               0.029000       0.000000
                                                         0.048794       0.029317
                                                         0.100000       0.000000
                                                         0.223369      -0.182080
                                                         1.213190      -0.558793
                          2       3    3py               0.029000       0.000000
                                                         0.048794       0.029317
                                                         0.100000       0.000000
                                                         0.223369      -0.182080
                                                         1.213190      -0.558793
                          2       3    3pz               0.029000       0.000000
                                                         0.048794       0.029317
                                                         0.100000       0.000000
                                                         0.223369      -0.182080
                                                         1.213190      -0.558793

                          2       4    4px               0.029000      -0.012291
                                                         0.048794      -0.011583
                                                         0.100000       0.000576
                                                         0.223369       0.038076
                                                         1.213190       0.156467
                          2       4    4py               0.029000      -0.012291
                                                         0.048794      -0.011583
                                                         0.100000       0.000576
                                                         0.223369       0.038076
                                                         1.213190       0.156467
                          2       4    4pz               0.029000      -0.012291
                                                         0.048794      -0.011583
                                                         0.100000       0.000576
                                                         0.223369       0.038076
                                                         1.213190       0.156467

                          2       5    3dx2              0.029000       0.000037
                                                         0.048794       0.005006
                                                         0.100000       0.006694
                                                         0.223369       0.036503
                                                         1.213190       0.046202
                          2       5    3dxy              0.029000       0.000064
                                                         0.048794       0.008671
                                                         0.100000       0.011594
                                                         0.223369       0.063226
                                                         1.213190       0.080024
                          2       5    3dxz              0.029000       0.000064
                                                         0.048794       0.008671
                                                         0.100000       0.011594
                                                         0.223369       0.063226
                                                         1.213190       0.080024
                          2       5    3dy2              0.029000       0.000037
                                                         0.048794       0.005006
                                                         0.100000       0.006694
                                                         0.223369       0.036503
                                                         1.213190       0.046202
                          2       5    3dyz              0.029000       0.000064
                                                         0.048794       0.008671
                                                         0.100000       0.011594
                                                         0.223369       0.063226
                                                         1.213190       0.080024
                          2       5    3dz2              0.029000       0.000037
                                                         0.048794       0.005006
                                                         0.100000       0.006694
                                                         0.223369       0.036503
                                                         1.213190       0.046202

     RI Auxiliary Basis Set             RI_aug-DZVP-MOLOPT-ae_N_RI_015_s_p_d_f_g

       Number of orbital shell sets:                                           7
       Number of orbital shells:                                               7
       Number of primitive Cartesian functions:                                7
       Number of Cartesian basis functions:                                   16
       Number of spherical basis functions:                                   15
       Norm type:                                                              2

       Normalised Cartesian orbitals:

                        Set   Shell   Orbital            Exponent    Coefficient

                          1       1    1s                0.308410       0.294956

                          2       1    7dx2              0.774281       1.051917
                          2       1    7dxy              0.774281       1.821974
                          2       1    7dxz              0.774281       1.821974
                          2       1    7dy2              0.774281       1.051917
                          2       1    7dyz              0.774281       1.821974
                          2       1    7dz2              0.774281       1.051917

                          3       1    5px               0.886394       1.225952
                          3       1    5py               0.886394       1.225952
                          3       1    5pz               0.886394       1.225952

                          4       1    2s                2.252329       1.310340

                          5       1    6px               3.073573       5.800889
                          5       1    6py               3.073573       5.800889
                          5       1    6pz               3.073573       5.800889

                          6       1    3s               13.433609       5.000974

                          7       1    4s               53.274042      14.053899

       Atomic covalent radius [Angstrom]:                                  1.230

       Atomic van der Waals radius [Angstrom]:                             1.820

     The atoms of this atomic kind are PAW atoms (GAPW):
       Hard Gaussian function radius:                                      1.512
       Rho0 radius:                                                        1.512
       Maximum GTO radius used for PAW projector construction:            24.566

     GAPW Soft Basis Set                                 aug-DZVP-MOLOPT-ae_soft

       Number of orbital shell sets:                                           2
       Number of orbital shells:                                               8
       Number of primitive Cartesian functions:                                9
       Number of Cartesian basis functions:                                   19
       Number of spherical basis functions:                                   18
       Norm type:                                                              2

       Normalised Cartesian orbitals:

                        Set   Shell   Orbital            Exponent    Coefficient

                          1       1    1s                1.822796       0.505979
                                                         0.563425       0.128977
                                                         0.074745       0.017289
                                                         0.024840       0.003709

                          1       2    2s                1.822796      -0.843164
                                                         0.563425      -0.005845
                                                         0.074745       0.170244
                                                         0.024840      -0.066060

                          1       3    3s                1.822796      -0.095833
                                                         0.563425      -0.093731
                                                         0.074745       0.056044
                                                         0.024840       0.024271

                          2       1    1s                0.029000       0.145227
                                                         0.048794      -0.168155
                                                         0.100000      -0.048428
                                                         0.223369       0.023674
                                                         1.213190       0.014068

                          2       2    2px               0.029000       0.000000
                                                         0.048794       0.017982
                                                         0.100000       0.000000
                                                         0.223369       0.120231
                                                         1.213190       0.214757
                          2       2    2py               0.029000       0.000000
                                                         0.048794       0.017982
                                                         0.100000       0.000000
                                                         0.223369       0.120231
                                                         1.213190       0.214757
                          2       2    2pz               0.029000       0.000000
                                                         0.048794       0.017982
                                                         0.100000       0.000000
                                                         0.223369       0.120231
                                                         1.213190       0.214757

                          2       3    3px               0.029000       0.000000
                                                         0.048794       0.029317
                                                         0.100000       0.000000
                                                         0.223369      -0.182080
                                                         1.213190      -0.558793
                          2       3    3py               0.029000       0.000000
                                                         0.048794       0.029317
                                                         0.100000       0.000000
                                                         0.223369      -0.182080
                                                         1.213190      -0.558793
                          2       3    3pz               0.029000       0.000000
                                                         0.048794       0.029317
                                                         0.100000       0.000000
                                                         0.223369      -0.182080
                                                         1.213190      -0.558793

                          2       4    4px               0.029000      -0.012291
                                                         0.048794      -0.011583
                                                         0.100000       0.000576
                                                         0.223369       0.038076
                                                         1.213190       0.156467
                          2       4    4py               0.029000      -0.012291
                                                         0.048794      -0.011583
                                                         0.100000       0.000576
                                                         0.223369       0.038076
                                                         1.213190       0.156467
                          2       4    4pz               0.029000      -0.012291
                                                         0.048794      -0.011583
                                                         0.100000       0.000576
                                                         0.223369       0.038076
                                                         1.213190       0.156467

                          2       5    3dx2              0.029000       0.000037
                                                         0.048794       0.005006
                                                         0.100000       0.006694
                                                         0.223369       0.036503
                                                         1.213190       0.046202
                          2       5    3dxy              0.029000       0.000064
                                                         0.048794       0.008671
                                                         0.100000       0.011594
                                                         0.223369       0.063226
                                                         1.213190       0.080024
                          2       5    3dxz              0.029000       0.000064
                                                         0.048794       0.008671
                                                         0.100000       0.011594
                                                         0.223369       0.063226
                                                         1.213190       0.080024
                          2       5    3dy2              0.029000       0.000037
                                                         0.048794       0.005006
                                                         0.100000       0.006694
                                                         0.223369       0.036503
                                                         1.213190       0.046202
                          2       5    3dyz              0.029000       0.000064
                                                         0.048794       0.008671
                                                         0.100000       0.011594
                                                         0.223369       0.063226
                                                         1.213190       0.080024
                          2       5    3dz2              0.029000       0.000037
                                                         0.048794       0.005006
                                                         0.100000       0.006694
                                                         0.223369       0.036503
                                                         1.213190       0.046202

     AE Potential information for                                            ALL

       Description:                                       All-electron potential
                                          Krack, Parrinello, PCCP 2, 2105 (2000)

       Gaussian exponent of the core charge distribution:               3.125000
       Electronic configuration (s p d ...):                           3   0   0

  2. Atomic kind: h                                     Number of atoms:       1

     Orbital Basis Set                                        aug-DZVP-MOLOPT-ae

       Number of orbital shell sets:                                           1
       Number of orbital shells:                                               5
       Number of primitive Cartesian functions:                                5
       Number of Cartesian basis functions:                                    9
       Number of spherical basis functions:                                    9
       Norm type:                                                              2

       Normalised Cartesian orbitals:

                        Set   Shell   Orbital            Exponent    Coefficient

                          1       1    2s                0.035000       0.000000
                                                         0.111920       0.009149
                                                         0.374948       0.205449
                                                         1.446686       0.373852
                                                        12.248855       0.310040

                          1       2    3s                0.035000       0.000000
                                                         0.111920       0.143650
                                                         0.374948       0.007287
                                                         1.446686      -0.188851
                                                        12.248855      -0.144753

                          1       3    4s                0.035000       0.090463
                                                         0.111920      -0.203934
                                                         0.374948      -0.000376
                                                         1.446686      -0.000051
                                                        12.248855       0.000000

                          1       4    3px               0.035000       0.000000
                                                         0.111920       0.007225
                                                         0.374948       0.280770
                                                         1.446686       0.896497
                                                        12.248855      -0.764411
                          1       4    3py               0.035000       0.000000
                                                         0.111920       0.007225
                                                         0.374948       0.280770
                                                         1.446686       0.896497
                                                        12.248855      -0.764411
                          1       4    3pz               0.035000       0.000000
                                                         0.111920       0.007225
                                                         0.374948       0.280770
                                                         1.446686       0.896497
                                                        12.248855      -0.764411

                          1       5    4px               0.035000       0.011331
                                                         0.111920       0.048737
                                                         0.374948       0.028490
                                                         1.446686       0.035587
                                                        12.248855       0.000000
                          1       5    4py               0.035000       0.011331
                                                         0.111920       0.048737
                                                         0.374948       0.028490
                                                         1.446686       0.035587
                                                        12.248855       0.000000
                          1       5    4pz               0.035000       0.011331
                                                         0.111920       0.048737
                                                         0.374948       0.028490
                                                         1.446686       0.035587
                                                        12.248855       0.000000

     RI Auxiliary Basis Set             RI_aug-DZVP-MOLOPT-ae_N_RI_009_s_p_d_f_g

       Number of orbital shell sets:                                           5
       Number of orbital shells:                                               5
       Number of primitive Cartesian functions:                                5
       Number of Cartesian basis functions:                                    9
       Number of spherical basis functions:                                    9
       Norm type:                                                              2

       Normalised Cartesian orbitals:

                        Set   Shell   Orbital            Exponent    Coefficient

                          1       1    4px               0.330315       0.356944
                          1       1    4py               0.330315       0.356944
                          1       1    4pz               0.330315       0.356944

                          2       1    1s                0.373568       0.340555

                          3       1    2s                0.886477       0.651119

                          4       1    5px               1.451319       2.270616
                          4       1    5py               1.451319       2.270616
                          4       1    5pz               1.451319       2.270616

                          5       1    3s                5.028848       2.393379

       Atomic covalent radius [Angstrom]:                                  0.320

       Atomic van der Waals radius [Angstrom]:                             1.090

     The atoms of this atomic kind are PAW atoms (GAPW):
       Hard Gaussian function radius:                                      1.200
       Rho0 radius:                                                        1.200
       Maximum GTO radius used for PAW projector construction:            24.566

     GAPW Soft Basis Set                                 aug-DZVP-MOLOPT-ae_soft

       Number of orbital shell sets:                                           1
       Number of orbital shells:                                               5
       Number of primitive Cartesian functions:                                4
       Number of Cartesian basis functions:                                    9
       Number of spherical basis functions:                                    9
       Norm type:                                                              2

       Normalised Cartesian orbitals:

                        Set   Shell   Orbital            Exponent    Coefficient

                          1       1    2s                0.035000       0.000000
                                                         0.111920       0.009149
                                                         0.374948       0.205449
                                                         1.446686       0.373852

                          1       2    3s                0.035000       0.000000
                                                         0.111920       0.143650
                                                         0.374948       0.007287
                                                         1.446686      -0.188851

                          1       3    4s                0.035000       0.090463
                                                         0.111920      -0.203934
                                                         0.374948      -0.000376
                                                         1.446686      -0.000051

                          1       4    3px               0.035000       0.000000
                                                         0.111920       0.007225
                                                         0.374948       0.280770
                                                         1.446686       0.896497
                          1       4    3py               0.035000       0.000000
                                                         0.111920       0.007225
                                                         0.374948       0.280770
                                                         1.446686       0.896497
                          1       4    3pz               0.035000       0.000000
                                                         0.111920       0.007225
                                                         0.374948       0.280770
                                                         1.446686       0.896497

                          1       5    4px               0.035000       0.011331
                                                         0.111920       0.048737
                                                         0.374948       0.028490
                                                         1.446686       0.035587
                          1       5    4py               0.035000       0.011331
                                                         0.111920       0.048737
                                                         0.374948       0.028490
                                                         1.446686       0.035587
                          1       5    4pz               0.035000       0.011331
                                                         0.111920       0.048737
                                                         0.374948       0.028490
                                                         1.446686       0.035587

     AE Potential information for                                            ALL

       Description:                                       All-electron potential
                                          Krack, Parrinello, PCCP 2, 2105 (2000)

       Gaussian exponent of the core charge distribution:              12.500000
       Electronic configuration (s p d ...):                           1   0   0


 MOLECULE KIND INFORMATION


 All atoms are their own molecule, skipping detailed information


 TOTAL NUMBERS AND MAXIMUM NUMBERS

  Total number of            - Atomic kinds:                                   2
                             - Atoms:                                          2
                             - Shell sets:                                     3
                             - Shells:                                        13
                             - Primitive Cartesian functions:                 17
                             - Cartesian basis functions:                     28
                             - Spherical basis functions:                     27

  Maximum angular momentum of the orbital basis functions:                     2


 MODULE QUICKSTEP: ATOMIC COORDINATES IN ANGSTROM

   Atom Kind Element         X             Y             Z       Z(eff)     Mass
      1    1 li    3     15.000000     15.000000     14.202603   3.0000   6.9410
      2    2 h     1     15.000000     15.000000     15.797397   1.0000   1.0079



 SCF PARAMETERS         Density guess:                                    ATOMIC
                        --------------------------------------------------------
                        max_scf:                                             500
                        max_scf_history:                                       0
                        max_diis:                                              4
                        --------------------------------------------------------
                        eps_scf:                                        1.00E-06
                        eps_scf_history:                                0.00E+00
                        eps_diis:                                       1.00E-01
                        eps_eigval:                                     1.00E-05
                        --------------------------------------------------------
                        level_shift [a.u.]:                             0.000000
                        added MOs                                        25    0
                        --------------------------------------------------------
                        Mixing method:                            BROYDEN_MIXING
                                                charge density mixing in g-space
                        --------------------------------------------------------
                        Smear method:                                FERMI_DIRAC
                        Electronic temperature [K]:                        300.0
                        Electronic temperature [a.u.]:                  9.50E-04
                        Accuracy threshold:                             1.00E-10
                        --------------------------------------------------------
                        No outer SCF

 PW_GRID| Information for grid number                                          1
 PW_GRID| Grid distributed over                                    24 processors
 PW_GRID| Real space group dimensions                                    24    1
 PW_GRID| the grid is blocked:                                                NO
 PW_GRID| Cutoff [a.u.]                                                    250.0
 PW_GRID| spherical cutoff:                                                   NO
 PW_GRID|   Bounds   1           -202     202                Points:         405
 PW_GRID|   Bounds   2           -202     202                Points:         405
 PW_GRID|   Bounds   3           -202     202                Points:         405
 PW_GRID| Volume element (a.u.^3)  0.2743E-02     Volume (a.u.^3)    182205.0337
 PW_GRID| Grid span                                                    FULLSPACE
 PW_GRID|   Distribution                         Average         Max         Min
 PW_GRID|   G-Vectors                          2767921.9     2768175     2767770
 PW_GRID|   G-Rays                                6834.4        6835        6834
 PW_GRID|   Real Space Points                  2767921.9     2788425     2624400

 PW_GRID| Information for grid number                                          2
 PW_GRID| Number of the reference grid                                         1
 PW_GRID| Grid distributed over                                    24 processors
 PW_GRID| Real space group dimensions                                    24    1
 PW_GRID| the grid is blocked:                                                NO
 PW_GRID| Cutoff [a.u.]                                                     83.3
 PW_GRID| spherical cutoff:                                                   NO
 PW_GRID|   Bounds   1           -120     119                Points:         240
 PW_GRID|   Bounds   2           -120     119                Points:         240
 PW_GRID|   Bounds   3           -120     119                Points:         240
 PW_GRID| Volume element (a.u.^3)  0.1318E-01     Volume (a.u.^3)    182205.0337
 PW_GRID| Grid span                                                    FULLSPACE
 PW_GRID|   Distribution                         Average         Max         Min
 PW_GRID|   G-Vectors                           576000.0      576240      575760
 PW_GRID|   G-Rays                                2400.0        2401        2399
 PW_GRID|   Real Space Points                   576000.0      576000      576000

 PW_GRID| Information for grid number                                          3
 PW_GRID| Number of the reference grid                                         1
 PW_GRID| Grid distributed over                                    24 processors
 PW_GRID| Real space group dimensions                                    24    1
 PW_GRID| the grid is blocked:                                                NO
 PW_GRID| Cutoff [a.u.]                                                     27.8
 PW_GRID| spherical cutoff:                                                   NO
 PW_GRID|   Bounds   1            -67      67                Points:         135
 PW_GRID|   Bounds   2            -67      67                Points:         135
 PW_GRID|   Bounds   3            -67      67                Points:         135
 PW_GRID| Volume element (a.u.^3)  0.7406E-01     Volume (a.u.^3)    182205.0337
 PW_GRID| Grid span                                                    FULLSPACE
 PW_GRID|   Distribution                         Average         Max         Min
 PW_GRID|   G-Vectors                           102515.6      102735      102330
 PW_GRID|   G-Rays                                 759.4         761         758
 PW_GRID|   Real Space Points                   102515.6      109350       91125

 PW_GRID| Information for grid number                                          4
 PW_GRID| Number of the reference grid                                         1
 PW_GRID| Grid distributed over                                    24 processors
 PW_GRID| Real space group dimensions                                    24    1
 PW_GRID| the grid is blocked:                                                NO
 PW_GRID| Cutoff [a.u.]                                                      9.3
 PW_GRID| spherical cutoff:                                                   NO
 PW_GRID|   Bounds   1            -40      39                Points:          80
 PW_GRID|   Bounds   2            -40      39                Points:          80
 PW_GRID|   Bounds   3            -40      39                Points:          80
 PW_GRID| Volume element (a.u.^3)  0.3559         Volume (a.u.^3)    182205.0337
 PW_GRID| Grid span                                                    FULLSPACE
 PW_GRID|   Distribution                         Average         Max         Min
 PW_GRID|   G-Vectors                            21333.3       21360       21280
 PW_GRID|   G-Rays                                 266.7         267         266
 PW_GRID|   Real Space Points                    21333.3       25600       19200

 POISSON| Solver                                                         WAVELET
 POISSON| Wavelet| Scaling function                                           40
 POISSON| Periodicity                                                       NONE

 RS_GRID| Information for grid number                                          1
 RS_GRID|   Bounds   1           -202     202                Points:         405
 RS_GRID|   Bounds   2           -202     202                Points:         405
 RS_GRID|   Bounds   3           -202     202                Points:         405
 RS_GRID| Real space distribution over                                  4 groups
 RS_GRID| Real space distribution along direction                              2
 RS_GRID| Border size                                                         34
 RS_GRID| Real space distribution over                                  6 groups
 RS_GRID| Real space distribution along direction                              3
 RS_GRID| Border size                                                         34
 RS_GRID|   Distribution                         Average         Max         Min
 RS_GRID|   Planes                                 169.2         170         169
 RS_GRID|   Distribution                         Average         Max         Min
 RS_GRID|   Planes                                 135.5         136         135

 RS_GRID| Information for grid number                                          2
 RS_GRID|   Bounds   1           -120     119                Points:         240
 RS_GRID|   Bounds   2           -120     119                Points:         240
 RS_GRID|   Bounds   3           -120     119                Points:         240
 RS_GRID| Real space distribution over                                  4 groups
 RS_GRID| Real space distribution along direction                              2
 RS_GRID| Border size                                                         35
 RS_GRID| Real space distribution over                                  6 groups
 RS_GRID| Real space distribution along direction                              3
 RS_GRID| Border size                                                         35
 RS_GRID|   Distribution                         Average         Max         Min
 RS_GRID|   Planes                                 130.0         130         130
 RS_GRID|   Distribution                         Average         Max         Min
 RS_GRID|   Planes                                 110.0         110         110

 RS_GRID| Information for grid number                                          3
 RS_GRID|   Bounds   1            -67      67                Points:         135
 RS_GRID|   Bounds   2            -67      67                Points:         135
 RS_GRID|   Bounds   3            -67      67                Points:         135
 RS_GRID| Real space fully replicated
 RS_GRID| Group size                                                           1

 RS_GRID| Information for grid number                                          4
 RS_GRID|   Bounds   1            -40      39                Points:          80
 RS_GRID|   Bounds   2            -40      39                Points:          80
 RS_GRID|   Bounds   3            -40      39                Points:          80
 RS_GRID| Real space fully replicated
 RS_GRID| Group size                                                           1

  HFX_INFO| Replica ID:                                                        1
  HFX_INFO| FRACTION:                                               0.2500000000
  HFX_INFO| Interaction Potential:                                       COULOMB
  HFX_INFO| EPS_SCHWARZ:                                                 1.0E-10
  HFX_INFO| EPS_SCHWARZ_FORCES                                           1.0E-08
  HFX_INFO| EPS_STORAGE_SCALING:                                         1.0E+00
  HFX_INFO| NBINS:                                                            64
  HFX_INFO| BLOCK_SIZE:                                                        1
  HFX_INFO| Number of periodic shells considered:                           NONE
  HFX_INFO| Number of periodic cells considered:                            NONE

 
 RI-RPA| using GPW style
 

 OVERLAP MATRIX CONDITION NUMBER
 1-Norm Condition Number (Estimate)
   CN : |A|*|A^-1|:  4.411E+000 *  4.824E+002   = 2.128E+003  Log(1-CN):  3.3279
 1-Norm and 2-Norm Condition Numbers using Diagonalization
   CN : |A|*|A^-1|:  4.411E+000 *  4.824E+002   = 2.128E+003  Log(1-CN):  3.3279
   CN : max/min ev:  2.914E+000 /  3.215E-003   = 9.064E+002  Log(2-CN):  2.9573

 Number of electrons:                                                          4
 Number of occupied orbitals:                                                  2
 Number of molecular orbitals:                                                27

 Number of orbital functions:                                                 27
 Number of independent orbital functions:                                     27

 Extrapolation method: initial_guess

 Atomic guess: The first density matrix is obtained in terms of atomic orbitals
               and electronic configurations assigned to each atomic kind

 Guess for atomic kind: li

 Electronic structure
    Total number of core electrons                                          0.00
    Total number of valence electrons                                       3.00
    Total number of electrons                                               3.00
    Multiplicity                                                   not specified
    S      2.00  1.00


 *******************************************************************************
                  Iteration          Convergence                     Energy [au]
 *******************************************************************************
                          1        0.217764E-01                  -7.325479042754
                          2        0.904081E-03                  -7.325601896959
                          3        0.820609E-05                  -7.325601958339
                          4        0.914042E-06                  -7.325601958441

 Energy components [Hartree]           Total Energy ::           -7.325601958441
                                        Band Energy ::           -3.837348964992
                                     Kinetic Energy ::            7.342098450317
                                   Potential Energy ::          -14.667700408758
                                      Virial (-V/T) ::            1.997753163896
                                        Core Energy ::           -9.674505350313
                                          XC Energy ::           -1.661039296539
                                     Coulomb Energy ::            4.009942688412

 Orbital energies  State     L     Occupation   Energy[a.u.]          Energy[eV]

                       1     0          2.000      -1.867231          -50.809952
                       2     0          1.000      -0.102886           -2.799672


 Total Electron Density at R=0:                                        12.637024

 Guess for atomic kind: h

 Electronic structure
    Total number of core electrons                                          0.00
    Total number of valence electrons                                       1.00
    Total number of electrons                                               1.00
    Multiplicity                                                   not specified
    S      1.00


 *******************************************************************************
                  Iteration          Convergence                     Energy [au]
 *******************************************************************************
                          1        0.100530E-01                  -0.443985550189
                          2        0.945329E-03                  -0.444090029920
                          3        0.103025E-03                  -0.444092117382
                          4        0.802727E-07                  -0.444092129626

 Energy components [Hartree]           Total Energy ::           -0.444092129626
                                        Band Energy ::           -0.233486998571
                                     Kinetic Energy ::            0.420413643923
                                   Potential Energy ::           -0.864505773549
                                      Virial (-V/T) ::            2.056321877382
                                        Core Energy ::           -0.493965249450
                                          XC Energy ::           -0.230662915809
                                     Coulomb Energy ::            0.280536035634

 Orbital energies  State     L     Occupation   Energy[a.u.]          Energy[eV]

                       1     0          1.000      -0.233487           -6.353504


 Total Electron Density at R=0:                                         0.246678
 Re-scaling the density matrix to get the right number of electrons
                  # Electrons              Trace(P)               Scaling factor
                            4                 4.000                        1.000


 SCF WAVEFUNCTION OPTIMIZATION

  Step     Update method      Time    Convergence         Total energy    Change
  ------------------------------------------------------------------------------

  HFX_MEM_INFO| Est. max. program size before HFX [MiB]:                    2147
  HFX_MEM_INFO| Number of cart. primitive ERI's calculated:             17403609
  HFX_MEM_INFO| Number of sph. ERI's calculated:                          229635
  HFX_MEM_INFO| Number of sph. ERI's stored in-core:                      229635
  HFX_MEM_INFO| Number of sph. ERI's stored on disk:                           0
  HFX_MEM_INFO| Number of sph. ERI's calculated on the fly:                    0
  HFX_MEM_INFO| Total memory consumption ERI's RAM [MiB]:                      2
  HFX_MEM_INFO| Whereof max-vals [MiB]:                                        1
  HFX_MEM_INFO| Total compression factor ERI's RAM:                         1.09
  HFX_MEM_INFO| Total memory consumption ERI's disk [MiB]:                     0
  HFX_MEM_INFO| Total compression factor ERI's disk:                        0.00
  HFX_MEM_INFO| Size of density/Fock matrix [MiB]:                             0
  HFX_MEM_INFO| Size of buffers [MiB]:                                         1
  HFX_MEM_INFO| Est. max. program size after HFX  [MiB]:                    2657

     1 NoMix/Diag. 0.10E+00    7.1     0.82604842        -7.9202680048 -7.92E+00
     2 Broy./Diag. 0.10E+00    4.8     0.06818294        -7.7555926266  1.65E-01
     3 Broy./Diag. 0.10E+00    4.9     0.13298700        -7.4931745260  2.62E-01
     4 Broy./Diag. 0.10E+00    4.9     0.03187843        -7.3085928573  1.85E-01
     5 Broy./Diag. 0.10E+00    5.0     0.03107096        -7.5172150359 -2.09E-01
     6 Broy./Diag. 0.10E+00    5.0     0.08873053        -7.6404515768 -1.23E-01
     7 Broy./Diag. 0.10E+00    5.0     0.03374256        -7.6974237205 -5.70E-02
     8 Broy./Diag. 0.10E+00    5.2     0.20807296        -7.8772535020 -1.80E-01
     9 Broy./Diag. 0.10E+00    5.2     0.10194709        -8.0342299334 -1.57E-01
    10 Broy./Diag. 0.10E+00    5.3     0.01006947        -8.0742038528 -4.00E-02
    11 Broy./Diag. 0.10E+00    5.3     0.08397561        -7.9573758532  1.17E-01
    12 Broy./Diag. 0.10E+00    5.3     0.05329513        -7.9703018844 -1.29E-02
    13 Broy./Diag. 0.10E+00    5.3     0.02526049        -8.0085332328 -3.82E-02
    14 Broy./Diag. 0.10E+00    5.3     0.02292934        -8.0371367321 -2.86E-02
    15 Broy./Diag. 0.10E+00    5.3     0.02708080        -8.0587761231 -2.16E-02
    16 Broy./Diag. 0.10E+00    5.3     0.00814361        -8.0640555842 -5.28E-03
    17 Broy./Diag. 0.10E+00    5.3     0.00563326        -8.0578813187  6.17E-03
    18 Broy./Diag. 0.10E+00    5.3     0.01184636        -8.0432182950  1.47E-02
    19 Broy./Diag. 0.10E+00    5.3     0.01088159        -8.0443715861 -1.15E-03
    20 Broy./Diag. 0.10E+00    5.3     0.00311150        -8.0494780746 -5.11E-03
    21 Broy./Diag. 0.10E+00    5.3     0.00481852        -8.0455452887  3.93E-03
    22 Broy./Diag. 0.10E+00    5.3     0.00581395        -8.0454382213  1.07E-04
    23 Broy./Diag. 0.10E+00    5.3     0.00245139        -8.0474791116 -2.04E-03
    24 Broy./Diag. 0.10E+00    5.3     0.00179509        -8.0468562888  6.23E-04
    25 Broy./Diag. 0.10E+00    5.4     0.00064182        -8.0468460298  1.03E-05
    26 Broy./Diag. 0.10E+00    5.3     0.00235022        -8.0481667579 -1.32E-03
    27 Broy./Diag. 0.10E+00    5.3     0.00182054        -8.0481308126  3.59E-05
    28 Broy./Diag. 0.10E+00    5.3     0.00181177        -8.0464944586  1.64E-03
    29 Broy./Diag. 0.10E+00    5.3     0.00085370        -8.0464462577  4.82E-05
    30 Broy./Diag. 0.10E+00    5.3     0.00286587        -8.0466195420 -1.73E-04
    31 Broy./Diag. 0.10E+00    5.3     0.00145750        -8.0460475426  5.72E-04
    32 Broy./Diag. 0.10E+00    5.3     0.00025005        -8.0456246188  4.23E-04
    33 Broy./Diag. 0.10E+00    5.3     0.00095923        -8.0456992035 -7.46E-05
    34 Broy./Diag. 0.10E+00    5.3     0.00073622        -8.0456533194  4.59E-05
    35 Broy./Diag. 0.10E+00    5.3     0.00026545        -8.0454058643  2.47E-04
    36 Broy./Diag. 0.10E+00    5.3     0.00061255        -8.0453232696  8.26E-05
    37 Broy./Diag. 0.10E+00    5.3     0.00017294        -8.0452209501  1.02E-04
    38 Broy./Diag. 0.10E+00    5.3     0.00008848        -8.0450422733  1.79E-04
    39 Broy./Diag. 0.10E+00    5.3     0.00040615        -8.0449566773  8.56E-05
    40 Broy./Diag. 0.10E+00    5.3     0.00020349        -8.0450109212 -5.42E-05
    41 Broy./Diag. 0.10E+00    5.3     0.00022074        -8.0449744142  3.65E-05
    42 Broy./Diag. 0.10E+00    5.3     0.00064339        -8.0449238090  5.06E-05
    43 Broy./Diag. 0.10E+00    5.3     0.00020259        -8.0449368252 -1.30E-05
    44 Broy./Diag. 0.10E+00    5.3     0.00024765        -8.0449165024  2.03E-05
    45 Broy./Diag. 0.10E+00    5.3     0.00030634        -8.0448773606  3.91E-05
    46 Broy./Diag. 0.10E+00    5.3     0.00008333        -8.0449079967 -3.06E-05
    47 Broy./Diag. 0.10E+00    5.3     0.00005560        -8.0449244911 -1.65E-05
    48 Broy./Diag. 0.10E+00    5.4     0.00003801        -8.0448988710  2.56E-05
    49 Broy./Diag. 0.10E+00    5.3     0.00001094        -8.0448898315  9.04E-06
    50 Broy./Diag. 0.10E+00    5.3     0.00001467        -8.0448906969 -8.65E-07
    51 Broy./Diag. 0.10E+00    5.3     0.00002614        -8.0448760598  1.46E-05
    52 Broy./Diag. 0.10E+00    5.3     0.00000631        -8.0448666979  9.36E-06
    53 Broy./Diag. 0.10E+00    5.3     0.00002723        -8.0448731326 -6.43E-06
    54 Broy./Diag. 0.10E+00    5.3     0.00001777        -8.0448624660  1.07E-05
    55 Broy./Diag. 0.10E+00    5.3     0.00001020        -8.0448557266  6.74E-06
    56 Broy./Diag. 0.10E+00    5.3     0.00001899        -8.0448627871 -7.06E-06
    57 Broy./Diag. 0.10E+00    5.3     0.00005002        -8.0448645280 -1.74E-06
    58 Broy./Diag. 0.10E+00    5.3     0.00003921        -8.0448618396  2.69E-06
    59 Broy./Diag. 0.10E+00    5.4     0.00001388        -8.0448631936 -1.35E-06
    60 Broy./Diag. 0.10E+00    5.4     0.00001350        -8.0448613485  1.85E-06
    61 Broy./Diag. 0.10E+00    5.3     0.00000894        -8.0448594278  1.92E-06
    62 Broy./Diag. 0.10E+00    5.3     0.00002513        -8.0448621175 -2.69E-06
    63 Broy./Diag. 0.10E+00    5.3     0.00001218        -8.0448601893  1.93E-06
    64 Broy./Diag. 0.10E+00    5.5     0.00001424        -8.0448564730  3.72E-06
    65 Broy./Diag. 0.10E+00    5.4     0.00000881        -8.0448570998 -6.27E-07
    66 Broy./Diag. 0.10E+00    5.3     0.00000287        -8.0448583664 -1.27E-06
    67 Broy./Diag. 0.10E+00    5.3     0.00000794        -8.0448564372  1.93E-06
    68 Broy./Diag. 0.10E+00    5.3     0.00000281        -8.0448561381  2.99E-07
    69 Broy./Diag. 0.10E+00    5.3     0.00000733        -8.0448571986 -1.06E-06
    70 Broy./Diag. 0.10E+00    5.3     0.00000351        -8.0448570841  1.15E-07
    71 Broy./Diag. 0.10E+00    5.3     0.00000246        -8.0448560220  1.06E-06
    72 Broy./Diag. 0.10E+00    5.3     0.00000049        -8.0448559897  3.23E-08

  *** SCF run converged in    72 steps ***


  Electronic density on regular grids:         -3.1696633207        0.8303366793
  Core density on regular grids:                4.0000000000       -0.0000000000
  Hard and soft densities (Lebedev):           -6.0689824843       -5.2386444950
  Total Rho_soft + Rho1_hard - Rho1_soft       -4.0000013100
  Total charge density (r-space):              -0.0000013100
  Total Rho_soft + Rho0_soft (g-space):        -0.0000013207

  Overlap energy of the core charge distribution:               0.00000000001589
  Self energy of the core charge distribution:                 -7.75760677378165
  Core Hamiltonian energy:                                      0.72233248968443
  Hartree energy:                                               3.08841214001987
  Exchange-correlation energy:                                 -0.88315217504213
  Hartree-Fock Exchange energy:                                -0.53190808914847

  GAPW| Exc from hard and soft atomic rho1:                    -0.77973339278155
  GAPW| local Eh = 1 center integrals:                         -1.90320018863776
  Electronic entropic energy:                                  -0.00000000000000
  Fermi energy:                                                -0.07345330699668

  Total energy:                                                -8.04485598967137

 !-----------------------------------------------------------------------------!
                     Mulliken Population Analysis

 #  Atom  Element  Kind  Atomic population                           Net charge
       1     li       1          2.612460                              0.387540
       2     h        2          1.387540                             -0.387540
 # Total charge                              4.000000                  0.000000

 !-----------------------------------------------------------------------------!

 !-----------------------------------------------------------------------------!
                           Hirshfeld Charges

  #Atom  Element  Kind  Ref Charge     Population                    Net charge
      1       li     1       3.000          3.489                        -0.489
      2       h      2       1.000          0.509                         0.491

  Total Charge                                                            0.002
 !-----------------------------------------------------------------------------!


 RI-RPA section
 --------------

  Used number of processes per group:                                          1
  Maximum allowed memory usage per MPI process:                      1024.00 MiB
  RI_INFO| Cholesky decomposition group size:                                  2
  RI_INFO| Number of groups for auxiliary basis functions                     24

  RI_INFO| RI metric:                                                    COULOMB
  RI_INFO| Number of auxiliary basis functions:                               24
  GENERAL_INFO| Number of basis functions:                                    27
  GENERAL_INFO| Number of occupied orbitals:                                   2
  GENERAL_INFO| Number of virtual orbitals:                                   25
  RI_INFO| Total memory for (ia|K) integrals:                           0.01 MiB
  RI_INFO| Total memory for G0W0-(nm|K) integrals:                      0.13 MiB
  RI_INFO| Total memory for (ij|K) integrals:                           0.00 MiB
  RI_INFO| Total memory for (ab|K) integrals:                           0.11 MiB
  RI_INFO| Group size for frequency integration:                              24
  INTEG_INFO| Clenshaw-Curtius quadrature
  INTEG_INFO| Number of integration points:                                  100
  INTEG_INFO| Number of integration points per RPA group:                    100
  MATRIX_INFO| Number row processes:                                           4
  MATRIX_INFO| Number column processes:                                        6
  MATRIX_INFO| Row block size:                                                 3
  MATRIX_INFO| Column block size:                                              4
  INTEG_INFO| Scaling parameter:                                         0.20000
  INTEG_INFO| Started with Integration point   1 of 100
  INTEG_INFO| Started with Integration point   2 of 100
  INTEG_INFO| Started with Integration point   3 of 100
  INTEG_INFO| Started with Integration point   4 of 100
  INTEG_INFO| Started with Integration point   5 of 100
  INTEG_INFO| Started with Integration point   6 of 100
  INTEG_INFO| Started with Integration point   7 of 100
  INTEG_INFO| Started with Integration point   8 of 100
  INTEG_INFO| Started with Integration point   9 of 100
  INTEG_INFO| Started with Integration point  10 of 100
  INTEG_INFO| Started with Integration point  11 of 100
  INTEG_INFO| Started with Integration point  12 of 100
  INTEG_INFO| Started with Integration point  13 of 100
  INTEG_INFO| Started with Integration point  14 of 100
  INTEG_INFO| Started with Integration point  15 of 100
  INTEG_INFO| Started with Integration point  16 of 100
  INTEG_INFO| Started with Integration point  17 of 100
  INTEG_INFO| Started with Integration point  18 of 100
  INTEG_INFO| Started with Integration point  19 of 100
  INTEG_INFO| Started with Integration point  20 of 100
  INTEG_INFO| Started with Integration point  21 of 100
  INTEG_INFO| Started with Integration point  22 of 100
  INTEG_INFO| Started with Integration point  23 of 100
  INTEG_INFO| Started with Integration point  24 of 100
  INTEG_INFO| Started with Integration point  25 of 100
  INTEG_INFO| Started with Integration point  26 of 100
  INTEG_INFO| Started with Integration point  27 of 100
  INTEG_INFO| Started with Integration point  28 of 100
  INTEG_INFO| Started with Integration point  29 of 100
  INTEG_INFO| Started with Integration point  30 of 100
  INTEG_INFO| Started with Integration point  31 of 100
  INTEG_INFO| Started with Integration point  32 of 100
  INTEG_INFO| Started with Integration point  33 of 100
  INTEG_INFO| Started with Integration point  34 of 100
  INTEG_INFO| Started with Integration point  35 of 100
  INTEG_INFO| Started with Integration point  36 of 100
  INTEG_INFO| Started with Integration point  37 of 100
  INTEG_INFO| Started with Integration point  38 of 100
  INTEG_INFO| Started with Integration point  39 of 100
  INTEG_INFO| Started with Integration point  40 of 100
  INTEG_INFO| Started with Integration point  41 of 100
  INTEG_INFO| Started with Integration point  42 of 100
  INTEG_INFO| Started with Integration point  43 of 100
  INTEG_INFO| Started with Integration point  44 of 100
  INTEG_INFO| Started with Integration point  45 of 100
  INTEG_INFO| Started with Integration point  46 of 100
  INTEG_INFO| Started with Integration point  47 of 100
  INTEG_INFO| Started with Integration point  48 of 100
  INTEG_INFO| Started with Integration point  49 of 100
  INTEG_INFO| Started with Integration point  50 of 100
  INTEG_INFO| Started with Integration point  51 of 100
  INTEG_INFO| Started with Integration point  52 of 100
  INTEG_INFO| Started with Integration point  53 of 100
  INTEG_INFO| Started with Integration point  54 of 100
  INTEG_INFO| Started with Integration point  55 of 100
  INTEG_INFO| Started with Integration point  56 of 100
  INTEG_INFO| Started with Integration point  57 of 100
  INTEG_INFO| Started with Integration point  58 of 100
  INTEG_INFO| Started with Integration point  59 of 100
  INTEG_INFO| Started with Integration point  60 of 100
  INTEG_INFO| Started with Integration point  61 of 100
  INTEG_INFO| Started with Integration point  62 of 100
  INTEG_INFO| Started with Integration point  63 of 100
  INTEG_INFO| Started with Integration point  64 of 100
  INTEG_INFO| Started with Integration point  65 of 100
  INTEG_INFO| Started with Integration point  66 of 100
  INTEG_INFO| Started with Integration point  67 of 100
  INTEG_INFO| Started with Integration point  68 of 100
  INTEG_INFO| Started with Integration point  69 of 100
  INTEG_INFO| Started with Integration point  70 of 100
  INTEG_INFO| Started with Integration point  71 of 100
  INTEG_INFO| Started with Integration point  72 of 100
  INTEG_INFO| Started with Integration point  73 of 100
  INTEG_INFO| Started with Integration point  74 of 100
  INTEG_INFO| Started with Integration point  75 of 100
  INTEG_INFO| Started with Integration point  76 of 100
  INTEG_INFO| Started with Integration point  77 of 100
  INTEG_INFO| Started with Integration point  78 of 100
  INTEG_INFO| Started with Integration point  79 of 100
  INTEG_INFO| Started with Integration point  80 of 100
  INTEG_INFO| Started with Integration point  81 of 100
  INTEG_INFO| Started with Integration point  82 of 100
  INTEG_INFO| Started with Integration point  83 of 100
  INTEG_INFO| Started with Integration point  84 of 100
  INTEG_INFO| Started with Integration point  85 of 100
  INTEG_INFO| Started with Integration point  86 of 100
  INTEG_INFO| Started with Integration point  87 of 100
  INTEG_INFO| Started with Integration point  88 of 100
  INTEG_INFO| Started with Integration point  89 of 100
  INTEG_INFO| Started with Integration point  90 of 100
  INTEG_INFO| Started with Integration point  91 of 100
  INTEG_INFO| Started with Integration point  92 of 100
  INTEG_INFO| Started with Integration point  93 of 100
  INTEG_INFO| Started with Integration point  94 of 100
  INTEG_INFO| Started with Integration point  95 of 100
  INTEG_INFO| Started with Integration point  96 of 100
  INTEG_INFO| Started with Integration point  97 of 100
  INTEG_INFO| Started with Integration point  98 of 100
  INTEG_INFO| Started with Integration point  99 of 100
  INTEG_INFO| Started with Integration point 100 of 100
  PERFORMANCE| Average DGEMM flop rate (Gflops / MPI rank):                 0.00
  
  
  ******************************************************************************
[...]
 total gridlevel count  :         492109

 -------------------------------------------------------------------------------
 -                                                                             -
 -                         MESSAGE PASSING PERFORMANCE                         -
 -                                                                             -
 -------------------------------------------------------------------------------

 ROUTINE             CALLS      AVE VOLUME [Bytes]
 MP_Group              288
 MP_Bcast              708                 508619.
 MP_Allreduce         5973                   1974.
 MP_Sync               803
 MP_Alltoall          2016              109750162.
 MP_SendRecv          3407                 532039.
 MP_ISendRecv         6762                 270344.
 MP_Wait             20490
 MP_comm_split         126
 MP_ISend            12786                2026466.
 MP_IRecv            12786                2026466.
 -------------------------------------------------------------------------------


 -------------------------------------------------------------------------------
 -                                                                             -
 -                           R E F E R E N C E S                               -
 -                                                                             -
 -------------------------------------------------------------------------------
 
 CP2K version 2025.1 (Development Version), the CP2K developers group (2025).
 CP2K is freely available from https://www.cp2k.org/ .
 
 T. D. Kuehne, M. Iannuzzi, M. Del Ben, V. V. Rybkin, P. Seewald, F. Stein, T. 
 Laino, R. Z. Khaliullin, O. Schuett, F. Schiffmann, D. Golze, J. Wilhelm, S. 
 Chulkov, M. H. Bani-Hashemian, V. Weber, U. Borstnik, M. Taillefumier, A. S. 
 Jakobovits, A. Lazzaro, H. Pabst, T. Mueller, R. Schade, M. Guidon, S. 
 Andermatt, N. Holmberg, G. K. Schenter, A. Hehn, A. Bussy, F. Belleflamme, G. 
 Tabacchi, A. Gloess, M. Lass, I. Bethune, C. J. Mundy, C. Plessl, M. Watkins, 
 J. VandeVondele, M. Krack, J. Hutter.
 J. Chem. Phys. 152, 194103 (2020).
 CP2K: An electronic structure and molecular dynamics software package - 
 Quickstep: Efficient and accurate electronic structure calculations.
 https://doi.org/10.1063/5.0007045

 J. Wilhelm, D. Golze, L. Talirz, J. Hutter, C. A. Pignedoli.
 J. Phys. Chem. Lett. 9, 306-312 (2018).
 Toward GW calculations on thousands of atoms.
 https://doi.org/10.1021/acs.jpclett.7b02740

 J. Wilhelm, J. Hutter.
 Phys. Rev. B 95, 235123 (2017).
 Periodic GW calculations in the Gaussian and plane-waves scheme.
 https://doi.org/10.1103/PhysRevB.95.235123

 O. Schuett, P. Messmer, J. Hutter, J. VandeVondele.
 Electronic Structure Calculations on Graphics Processing Units, 173-190 (2016).
 GPU-Accelerated Sparse Matrix-Matrix Multiplication for Linear Scaling Density 
 Functional Theory.
 https://doi.org/10.1002/9781118670712.ch8

 J. Wilhelm, M. Del Ben, J. Hutter.
 J. Chem. Theory Comput. 12, 3623-3635 (2016).
 GW in the Gaussian and plane waves scheme with application to linear acenes.
 https://doi.org/10.1021/acs.jctc.6b00380

 M. Del Ben, O. Schuett, T. Wentz, P. Messmer, J. Hutter, J. VandeVondele.
 Comput. Phys. Commun. 187, 120-129 (2015).
 Enabling simulation at the fifth rung of DFT: Large scale RPA calculations with 
 excellent time to solution.
 https://doi.org/10.1016/j.cpc.2014.10.021

 J. Hutter, M. Iannuzzi, F. Schiffmann, J. VandeVondele.
 WIREs Comput Mol Sci. 4, 15-25 (2014).
 CP2K: atomistic simulations of condensed matter systems.
 https://doi.org/10.1002/wcms.1159

 U. Borstnik, J. VandeVondele, V. Weber, J. Hutter.
 Parallel Comput. 40, 47-58 (2014).
 Sparse matrix multiplication: The distributed block-compressed sparse row 
 library.
 https://doi.org/10.1016/j.parco.2014.03.012

 M. Del Ben, J. Hutter, J. VandeVondele.
 J. Chem. Theory Comput. 9, 2654-2671 (2013).
 Electron Correlation in the Condensed Phase from a Resolution of Identity 
 Approach Based on the Gaussian and Plane Waves Scheme.
 https://doi.org/10.1021/ct4002202

 M. Del Ben, J. Hutter, J. VandeVondele.
 J. Chem. Theory Comput. 8, 4177-4188 (2012).
 Second-Order Moller-Plesset Perturbation Theory in the Condensed Phase: An 
 Efficient and Massively Parallel Gaussian and Plane Waves Approach.
 https://doi.org/10.1021/ct300531w

 M. Guidon, J. Hutter, J. VandeVondele.
 J. Chem. Theory Comput. 5, 3010-3021 (2009).
 Robust Periodic Hartree-Fock Exchange for Large-Scale Simulations Using 
 Gaussian Basis Sets.
 https://doi.org/10.1021/ct900494g

 M. Guidon, F. Schiffmann, J. Hutter, J. VandeVondele.
 J. Chem. Phys. 128, 214104 (2008).
 Ab initio molecular dynamics using hybrid density functionals.
 https://doi.org/10.1063/1.2931945

 L. Genovese, T. Deutsch, S. Goedecker.
 J. Chem. Phys. 127, 054704 (2007).
 Efficient and accurate three-dimensional Poisson solver for surface problems.
 https://doi.org/10.1063/1.2754685

 J. VandeVondele, J. Hutter.
 J. Chem. Phys. 127, 114105 (2007).
 Gaussian basis sets for accurate calculations on molecular systems in gas and 
 condensed phases.
 https://doi.org/10.1063/1.2770708

 L. Genovese, T. Deutsch, A. Neelov, S. Goedecker, G. Beylkin.
 J. Chem. Phys. 125, 074105 (2006).
 Efficient solution of Poisson's equation with free boundary conditions.
 https://doi.org/10.1063/1.2335442

 M. Frigo, S. G. Johnson.
 Proc. IEEE 93, 216-231 (2005).
 The design and implementation of FFTW3.
 https://doi.org/10.1109/JPROC.2004.840301

 M. Krack, M. Parrinello.
 Phys. Chem. Chem. Phys. 2, 2105-2112 (2000).
 All-electron ab-initio molecular dynamics.
 https://doi.org/10.1039/b001167n

 G. Lippert, J. Hutter, M. Parrinello.
 Theor. Chem. Acc. 103, 124-140 (1999).
 The Gaussian and augmented-plane-wave density functional method for ab initio 
 molecular dynamics simulations.
 https://doi.org/10.1007/s002140050523

 J. P. Perdew, K. Burke, M. Ernzerhof.
 Phys. Rev. Lett. 77, 3865-3868 (1996).
 Generalized gradient approximation made simple.
 https://doi.org/10.1103/PhysRevLett.77.3865


 -------------------------------------------------------------------------------
 -                                                                             -
 -                                T I M I N G                                  -
 -                                                                             -
 -------------------------------------------------------------------------------
 SUBROUTINE                       CALLS  ASD         SELF TIME        TOTAL TIME
                                MAXIMUM       AVERAGE  MAXIMUM  AVERAGE  MAXIMUM
 CP2K                                 1  1.0    0.045    0.070  387.784  387.785
 qs_energies                          1  2.0    0.001    0.001  386.498  386.733
 scf_env_do_scf                       1  3.0    0.000    0.000  382.399  382.399
 scf_env_do_scf_inner_loop           72  4.0    0.002    0.005  382.399  382.399
 qs_ks_build_kohn_sham_matrix        73  7.0    0.011    0.013  288.734  288.738
 qs_ks_update_qs_env                 72  5.0    0.000    0.001  286.321  286.324
 rebuild_ks_matrix                   72  6.0    0.000    0.000  286.315  286.319
 fft_wrap_pw1pw2                   1524  9.9    0.036    0.045  172.222  173.600
 fft_wrap_pw1pw2_250               1086 11.1    7.629    8.580  167.047  168.745
 fft3d_ps                          1524 11.9   74.701   78.013  135.338  136.807
 pw_poisson_solve                    73  8.0    3.203    3.280  117.310  117.346
 qs_vxc_create                       73  8.0    0.001    0.001  104.295  104.295
 xc_vxc_pw_create                    72  9.0    1.852    1.925  104.294  104.294
 ps_wavelet_solve                    73  9.0   65.803   69.972   77.495   77.679
 xc_pw_derive                       432 11.0    0.006    0.006   74.984   76.540
 mp_alltoall_d54                     73 10.0    7.003   60.568    7.003   60.568
 xc_rho_set_and_dset_create          72 10.0    1.445    1.633   52.114   53.080
 gspace_mixing                       71  5.0    1.387    1.399   52.542   52.542
 xc_pw_divergence                    72 10.0    0.003    0.004   49.476   50.518
 mp_alltoall_z22v                  1524 13.9   37.045   48.688   37.045   48.688
 qs_rho_update_rho_low               73  5.0    0.001    0.001   43.784   43.784
 calculate_rho_elec                  73  6.0    1.426    1.439   43.742   43.742
 broyden_mixing                      71  6.0   39.468   39.961   40.112   40.255
 x_to_yz                            797 13.1   16.013   16.324   34.361   35.062
 yz_to_x                            727 12.8    7.559    9.191   26.255   33.071
 density_rs2pw                       73  7.0    0.005    0.006   32.434   32.865
 sum_up_and_integrate                73  8.0    0.001    0.001   23.747   23.783
 integrate_v_rspace                  73  9.0    0.002    0.003   23.292   23.362
 potential_pw2rs                     73 10.0    0.066    0.075   22.843   22.930
 prepare_gapw_den                    73  8.0    0.001    0.001   18.519   18.776
 put_rho0_on_grid                    73  9.0    1.429    1.444   18.112   18.369
 transfer_pw2rs                     366 10.6    0.006    0.007   13.488   13.600
 pw_scatter_p                       797 12.1   12.595   12.778   12.595   12.778
 xc_functional_eval                 360 10.9    0.001    0.002   10.993   11.848
 pbe_lda_eval                       360 11.9   10.992   11.846   10.992   11.846
 transfer_rs2pw                     366  8.4    0.011    0.013   11.467   11.710
 pw_gather_p                        727 11.8   10.384   11.255   10.384   11.255
 mp_waitany                       12320 11.5    9.446   10.207    9.446   10.207
 transfer_pw2rs_250                 147 11.0    3.591    3.824    9.897   10.142
 grid_collocate_task_list            73  7.0    9.391    9.724    9.391    9.724
 pw_derive                          651 11.3    8.620    9.007    8.620    9.007
 transfer_rs2pw_250                 147 10.0    3.754    3.875    8.610    8.861
 mp_sum_d                          1680  6.2    3.893    6.642    3.893    6.642
 integrate_vhg0_rspace               73  8.0    0.019    0.023    6.241    6.249
 mp_alltoall_d45                     74 10.0    3.889    5.141    3.889    5.141
 cp2k_distribution_to_z_slices       73  9.0    2.874    2.995    4.585    5.062
 fft_wrap_pw1pw2_90                 146 10.5    0.221    0.311    4.264    5.012
 pw_copy                           1090 10.6    4.613    4.950    4.613    4.950
 pw_poisson_set                      74  8.9    0.002    0.003    4.305    4.341
 hfx_ks_matrix                       73  8.0    0.003    0.003    4.223    4.314
 integrate_four_center               73  9.0    1.461    3.077    4.220    4.309
 pw_copy_to_array                   727 11.8    3.810    4.102    3.810    4.102
 mp_alltoall_d11v                  1264  9.4    3.013    4.024    3.013    4.024
 mp_sync                            803  9.5    2.133    3.582    2.133    3.582
 pw_axpy                            725  9.3    3.200    3.497    3.200    3.497
 mp2_main                             1  3.0    0.000    0.000    2.897    3.132
 rs_grid_zero                       367 11.2    3.081    3.128    3.081    3.128
 pw_integral_ab_c1d_c1d_gs           73  9.0    2.172    2.399    2.600    2.742
 pw_copy_from_array                 797 12.1    2.166    2.586    2.166    2.586
 compute_vec_Sigma_x_minus_vxc_       1  4.0    0.000    0.000    2.422    2.422
 transfer_pw2rs_90                   73 12.0    0.545    0.578    1.815    1.928
 pw_poisson_rebuild                  73  9.0    0.000    0.000    1.812    1.838
 ps_wavelet_create                    1 10.0    0.000    0.000    1.812    1.838
 RS_z_slice_distribution              1 11.0    1.648    1.712    1.812    1.838
 pw_zero                            434 10.3    1.465    1.526    1.465    1.526
 mp_isend_dv                      12286 11.6    0.965    1.494    0.965    1.494
 transfer_pw2rs_30                   73 12.0    0.814    0.868    1.361    1.458
 transfer_rs2pw_90                   73  9.0    0.426    0.449    1.331    1.457
 calculate_vxc_atom                  73  8.0    0.026    0.156    1.301    1.301
 transfer_rs2pw_30                   73  9.0    0.628    0.644    1.211    1.232
 mp_waitall_1                     12610 12.1    0.929    1.205    0.929    1.205
 mp_max_i                           563  2.9    0.557    1.056    0.557    1.056
 gaVxcgb_GC                         144  9.0    0.044    1.050    0.044    1.050
 scale_and_distribute               146 10.0    0.964    1.002    0.964    1.002
 init_scf_run                         1  3.0    0.000    0.000    0.979    0.980
 scf_env_initial_rho_setup            1  4.0    0.000    0.000    0.975    0.976
 Vh_1c_gg_integrals                  73  8.0    0.008    0.087    0.299    0.956
 mp_sum_dm                          515  7.6    0.636    0.920    0.636    0.920
 mp_irecv_dm3                      1760 11.5    0.493    0.870    0.493    0.870
 qs_init_subsys                       1  2.0    0.005    0.008    0.857    0.858
 qs_env_setup                         1  3.0    0.000    0.000    0.848    0.850
 qs_env_rebuild_pw_env                2  3.5    0.000    0.000    0.847    0.850
 pw_env_rebuild                       1  5.0    0.001    0.001    0.847    0.849
 pw_grid_setup                        4  6.0    0.000    0.000    0.835    0.838
 pw_grid_setup_internal               4  7.0    0.020    0.024    0.835    0.838
 mp_sendrecv_dv                    3358 10.0    0.772    0.832    0.772    0.832
 mp_isend_dm3                      1760 11.5    0.485    0.802    0.485    0.802
 integrate_four_center_main          73 10.0    0.028    0.370    0.046    0.764
 fft_wrap_pw1pw2_30                 146 10.5    0.035    0.042    0.714    0.740
 pw_grid_sort                         4  8.0    0.472    0.475    0.668    0.674
 mp_sum_dv                         2050 11.2    0.414    0.567    0.414    0.567
 pw_scale                           289  9.5    0.431    0.483    0.431    0.483
 rs_gather_matrices                  73 10.0    0.001    0.003    0.336    0.447
 transfer_pw2rs_10                   73 12.0    0.174    0.186    0.409    0.435
 qs_scf_new_mos                      72  5.0    0.001    0.001    0.413    0.421
 grid_integrate_task_list            73 10.0    0.111    0.419    0.111    0.419
 mp_sum_i                            17  9.9    0.236    0.403    0.236    0.403
 mp2_main_alloc_hfx                   1  4.0    0.168    0.403    0.168    0.403
 restraint_control                    1  2.0    0.000    0.000    0.235    0.403
 calc_screening_functions             1 10.0    0.289    0.294    0.396    0.401
 integrate_four_center_bin         6099 11.0    0.018    0.393    0.018    0.393
 calculate_rho_atom                 146  9.0    0.121    0.393    0.121    0.393
 mp_isendrecv_dv                   6716 12.0    0.207    0.388    0.207    0.388
 transfer_rs2pw_10                   73  9.0    0.116    0.121    0.305    0.314
 mp2_gpw_main                         1  4.0    0.000    0.000    0.289    0.300
 mixing_init                          1  5.0    0.287    0.291    0.291    0.292
 xc_pw_smooth                        72 10.0    0.000    0.000    0.198    0.257
 rpa_ri_compute_en                    1  5.0    0.000    0.000    0.208    0.208
 rpa_num_int                          1  6.0    0.001    0.001    0.206    0.206
 eigensolver_symm                    73  6.0    0.003    0.003    0.202    0.202
 sort_shells                          4  9.0    0.196    0.199    0.196    0.199
 powell_optimize                  79712 11.0    0.193    0.196    0.193    0.196
 cp_fm_syevd                         78  7.0    0.000    0.001    0.191    0.192
 fft_wrap_pw1pw2_10                 146 10.5    0.008    0.010    0.161    0.179
 mp_irecv_dv                      12275 11.6    0.100    0.171    0.100    0.171
 scf_post_calculation_gpw             1  3.0    0.000    0.000    0.170    0.170
 write_available_results              1  4.0    0.000    0.000    0.169    0.169
 write_mo_free_results                1  5.0    0.026    0.027    0.169    0.169
 calc_pair_dist_radii                 1 10.0    0.075    0.076    0.161    0.162
 calculate_dm_sparse                 72  6.0    0.000    0.000    0.155    0.156
 cp_dbcsr_plus_fm_fm_t               72  7.0    0.001    0.001    0.154    0.155
 cp_fm_redistribute_end              78  8.0    0.087    0.151    0.089    0.152
 cp_fm_syevd_base                    78  8.0    0.063    0.126    0.063    0.126
 dbcsr_multiply_generic              85  8.1    0.004    0.004    0.121    0.124
 pw_grid_assign                       4  8.0    0.104    0.105    0.105    0.106
 compute_GW_self_energy             100  7.0    0.001    0.001    0.096    0.101
 vxc_of_r_new                       288  9.0    0.001    0.013    0.004    0.086
 create_qs_kind_set                   1  2.0    0.000    0.000    0.079    0.080
 read_qs_kind                         2  3.0    0.023    0.030    0.079    0.080
 compute_GW_self_energy_deep        100  8.0    0.047    0.052    0.071    0.076
 rpa_num_int_RPA_matrix_operati     100  7.0    0.001    0.002    0.074    0.074
 calculate_hirshfeld_normalizat       1  6.0    0.001    0.004    0.071    0.073
 hirshfeld_integration                1  6.0    0.001    0.002    0.070    0.071
 dbcsr_complete_redistribute        235  8.4    0.008    0.011    0.070    0.071
 copy_dbcsr_to_fm                    87  6.3    0.002    0.002    0.061    0.069
 make_m2s                           170  9.1    0.004    0.004    0.064    0.067
 mp2_ri_gpw_compute_in                1  5.0    0.000    0.000    0.064    0.064
 mp2_ri_gpw_compute_in_loop           1  6.0    0.000    0.000    0.061    0.061
 parallel_gemm_fm                   364  8.5    0.000    0.000    0.059    0.060
 parallel_gemm_fm_gemm              364  9.5    0.000    0.000    0.058    0.060
 parser_read_line                  3644  4.0    0.001    0.001    0.056    0.059
 cp_fm_gemm                         364 10.5    0.058    0.059    0.058    0.059
 parser_read_line_low                11  5.0    0.007    0.022    0.054    0.058
 contract_B_L                         4  7.0    0.001    0.001    0.056    0.056
 broadcast_input_information         11  6.0    0.013    0.016    0.047    0.056
 calc_mat_Q                         100  8.0    0.000    0.000    0.052    0.054
 contract_S_to_Q                    100  9.0    0.000    0.000    0.052    0.053
 qs_energies_init_hamiltonians        1  3.0    0.000    0.000    0.053    0.053
 offload_free_buffer                 81  8.4    0.042    0.050    0.042    0.050
 build_core_hamiltonian_matrix        1  4.0    0.000    0.000    0.049    0.050
 overlap_condnum                      1  5.0    0.000    0.000    0.048    0.048
 cp_fm_to_fm_submat_general         112 10.1    0.043    0.045    0.043    0.045
 calculate_rho_atom_coeff            73  6.0    0.011    0.020    0.041    0.041
 multiply_cannon                     85  9.1    0.007    0.007    0.038    0.041
 copy_fm_to_dbcsr                   148  8.1    0.001    0.001    0.040    0.041
 cp_fm_redistribute_start            78  8.0    0.031    0.032    0.039    0.040
 -------------------------------------------------------------------------------

 The number of warnings for this run is : 1
 
 -------------------------------------------------------------------------------
  **** **** ******  **  PROGRAM ENDED AT                 2025-03-16 12:22:34.441
 ***** ** ***  *** **   PROGRAM RAN ON                              i01r11c05s11
 **    ****   ******    PROGRAM RAN BY                                   di38fab
 ***** **    ** ** **   PROGRAM PROCESS ID                                756107
  **** **  *******  **  PROGRAM STOPPED IN /hppfs/scratch/04/di38fab/05_MOL/W4-1
                                           1+ALK/li_h/DZVP/GW+BSE/1e-3
