 DBCSR| CPU Multiplication driver                                           BLAS (U)
 DBCSR| Multrec recursion limit                                              512 (U)
 DBCSR| Multiplication stack size                                           1000 (D)
 DBCSR| Maximum elements for images                                    UNLIMITED (U)
 DBCSR| Multiplicative factor virtual images                                   1 (U)
 DBCSR| Use multiplication densification                                       T (D)
 DBCSR| Multiplication size stacks                                             3 (U)
 DBCSR| Use memory pool for CPU allocation                                     F (U)
 DBCSR| Number of 3D layers                                               SINGLE (U)
 DBCSR| Use MPI memory allocation                                              F (U)
 DBCSR| Use RMA algorithm                                                      F (U)
 DBCSR| Use Communication thread                                               T (U)
 DBCSR| Communication thread load                                             75 (D)
 DBCSR| MPI: My process id                                                     0
 DBCSR| MPI: Number of processes                                              24
 DBCSR| OMP: Current number of threads                                         4
 DBCSR| OMP: Max number of threads                                             4
 DBCSR| Split modifier for TAS multiplication algorithm                  1.0E+00 (U)


  **** **** ******  **  PROGRAM STARTED AT               2025-03-11 06:45:42.968
 ***** ** ***  *** **   PROGRAM STARTED ON                          i03r08c05s05
 **    ****   ******    PROGRAM STARTED BY                               di38fab
 ***** **    ** ** **   PROGRAM PROCESS ID                                 27175
  **** **  *******  **  PROGRAM STARTED IN /hppfs/scratch/04/di38fab/05_MOL/W4-1
                                           1+ALK/so/aug-cc-pVQZ

 CP2K| version string:                 CP2K version 2025.1 (Development Version)
 CP2K| source code revision number:                                  git:d2e611a
 CP2K| cp2kflags: omp libint fftw3 libxc parallel scalapack max_contr=4         
 CP2K| is freely available from                            https://www.cp2k.org/
 CP2K| Program compiled at                       Thu 06 Mar 2025 05:09:20 PM CET
 CP2K| Program compiled on                                               login02
 CP2K| Program compiled for                                        Supermuc-foss
 CP2K| Data directory path                  /hppfs/work/pn36zo/di38fab/cp2k/data
 CP2K| Input file name                                                    GW.inp

 GLOBAL| Force Environment number                                              1
 GLOBAL| Basis set file name            /hppfs/scratch/04/di38fab/04_TMD/BASIS_A
 GLOBAL| Potential file name            /hppfs/work/pn36zo/di38fab/cp2k/data/ALL
 GLOBAL| MM Potential file name                                     MM_POTENTIAL
 GLOBAL| Coordinate file name                                      __STD_INPUT__
 GLOBAL| Method name                                                        CP2K
 GLOBAL| Project name                                                       MoS2
 GLOBAL| Run type                                                         ENERGY
 GLOBAL| FFT library                                                       FFTW3
 GLOBAL| Diagonalization library                                       ScaLAPACK
 GLOBAL| DGEMM library                                                      BLAS
 GLOBAL| Orthonormality check for eigenvectors                          DISABLED
 GLOBAL| Matrix multiplication library                                 ScaLAPACK
 GLOBAL| All-to-all communication in single precision                          F
 GLOBAL| FFTs using library dependent lengths                                  F
 GLOBAL| Grid backend                                                       AUTO
 GLOBAL| Global print level                                               MEDIUM
 GLOBAL| MPI I/O enabled                                                       T
 GLOBAL| Total number of message passing processes                            24
 GLOBAL| Number of threads for this process                                    4
 GLOBAL| This output is from process                                           0
 GLOBAL| OpenMP stack size per thread (OMP_STACKSIZE)                    default
 GLOBAL| CPU model name             Intel(R) Xeon(R) Platinum 8174 CPU @ 3.10GHz

 MEMORY| system memory details [Kb]
 MEMORY|                        rank 0           min           max       average
 MEMORY| MemTotal             98436660      98436660      98436660      98436660
 MEMORY| MemFree              83889356      83889356      84081344      83985350
 MEMORY| Buffers                     0             0             0             0
 MEMORY| Cached                2421736       2403768       2421736       2412752
 MEMORY| Slab                  1242200       1231876       1242200       1237038
 MEMORY| SReclaimable           268688        264868        268688        266778
 MEMORY| MemLikelyFree        86579780      86579780      86749980      86664880


 *** Fundamental physical constants (SI units) ***

 *** Literature: B. J. Mohr and B. N. Taylor,
 ***             CODATA recommended values of the fundamental physical
 ***             constants: 2006, Web Version 5.1
 ***             http://physics.nist.gov/constants

 Speed of light in vacuum [m/s]                             2.99792458000000E+08
 Magnetic constant or permeability of vacuum [N/A**2]       1.25663706143592E-06
 Electric constant or permittivity of vacuum [F/m]          8.85418781762039E-12
 Planck constant (h) [J*s]                                  6.62606896000000E-34
 Planck constant (h-bar) [J*s]                              1.05457162825177E-34
 Elementary charge [C]                                      1.60217648700000E-19
 Electron mass [kg]                                         9.10938215000000E-31
 Electron g factor [ ]                                     -2.00231930436220E+00
 Proton mass [kg]                                           1.67262163700000E-27
 Fine-structure constant                                    7.29735253760000E-03
 Rydberg constant [1/m]                                     1.09737315685270E+07
 Avogadro constant [1/mol]                                  6.02214179000000E+23
 Boltzmann constant [J/K]                                   1.38065040000000E-23
 Atomic mass unit [kg]                                      1.66053878200000E-27
 Bohr radius [m]                                            5.29177208590000E-11

 *** Conversion factors ***

 [u] -> [a.u.]                                              1.82288848426455E+03
 [Angstrom] -> [Bohr] = [a.u.]                              1.88972613288564E+00
 [a.u.] = [Bohr] -> [Angstrom]                              5.29177208590000E-01
 [a.u.] -> [s]                                              2.41888432650478E-17
 [a.u.] -> [fs]                                             2.41888432650478E-02
 [a.u.] -> [J]                                              4.35974393937059E-18
 [a.u.] -> [N]                                              8.23872205491840E-08
 [a.u.] -> [K]                                              3.15774647902944E+05
 [a.u.] -> [kJ/mol]                                         2.62549961709828E+03
 [a.u.] -> [kcal/mol]                                       6.27509468713739E+02
 [a.u.] -> [Pa]                                             2.94210107994716E+13
 [a.u.] -> [bar]                                            2.94210107994716E+08
 [a.u.] -> [atm]                                            2.90362800883016E+08
 [a.u.] -> [eV]                                             2.72113838565563E+01
 [a.u.] -> [Hz]                                             6.57968392072181E+15
 [a.u.] -> [1/cm] (wave numbers)                            2.19474631370540E+05
 [a.u./Bohr**2] -> [1/cm]                                   5.14048714338585E+03
 

 CELL_TOP| Volume [angstrom^3]:                                     27000.000000
 CELL_TOP| Vector a [angstrom    30.000     0.000     0.000   |a| =    30.000000
 CELL_TOP| Vector b [angstrom     0.000    30.000     0.000   |b| =    30.000000
 CELL_TOP| Vector c [angstrom     0.000     0.000    30.000   |c| =    30.000000
 CELL_TOP| Angle (b,c), alpha [degree]:                                90.000000
 CELL_TOP| Angle (a,c), beta  [degree]:                                90.000000
 CELL_TOP| Angle (a,b), gamma [degree]:                                90.000000
 CELL_TOP| Numerically orthorhombic:                                         YES
 CELL_TOP| Periodicity                                                      NONE

 GENERATE|  Preliminary Number of Bonds generated:                             0
 GENERATE|  Achieved consistency in connectivity generation.

 CELL| Volume [angstrom^3]:                                         27000.000000
 CELL| Vector a [angstrom]:      30.000     0.000     0.000   |a| =    30.000000
 CELL| Vector b [angstrom]:       0.000    30.000     0.000   |b| =    30.000000
 CELL| Vector c [angstrom]:       0.000     0.000    30.000   |c| =    30.000000
 CELL| Angle (b,c), alpha [degree]:                                    90.000000
 CELL| Angle (a,c), beta  [degree]:                                    90.000000
 CELL| Angle (a,b), gamma [degree]:                                    90.000000
 CELL| Numerically orthorhombic:                                             YES
 CELL| Periodicity                                                          NONE

 CELL_REF| Volume [angstrom^3]:                                     27000.000000
 CELL_REF| Vector a [angstrom    30.000     0.000     0.000   |a| =    30.000000
 CELL_REF| Vector b [angstrom     0.000    30.000     0.000   |b| =    30.000000
 CELL_REF| Vector c [angstrom     0.000     0.000    30.000   |c| =    30.000000
 CELL_REF| Angle (b,c), alpha [degree]:                                90.000000
 CELL_REF| Angle (a,c), beta  [degree]:                                90.000000
 CELL_REF| Angle (a,b), gamma [degree]:                                90.000000
 CELL_REF| Numerically orthorhombic:                                         YES
 CELL_REF| Periodicity                                                      NONE

 *******************************************************************************
 *******************************************************************************
 **                                                                           **
 **     #####                         ##              ##                      **
 **    ##   ##            ##          ##              ##                      **
 **   ##     ##                       ##            ######                    **
 **   ##     ##  ##   ##  ##   #####  ##  ##   ####   ##    #####    #####    **
 **   ##     ##  ##   ##  ##  ##      ## ##   ##      ##   ##   ##  ##   ##   **
 **   ##  ## ##  ##   ##  ##  ##      ####     ###    ##   ######   ######    **
 **    ##  ###   ##   ##  ##  ##      ## ##      ##   ##   ##       ##        **
 **     #######   #####   ##   #####  ##  ##  ####    ##    #####   ##        **
 **           ##                                                    ##        **
 **                                                                           **
 **                                                ... make the atoms dance   **
 **                                                                           **
 **            Copyright (C) by CP2K developers group (2000-2025)             **
 **                      J. Chem. Phys. 152, 194103 (2020)                    **
 **                                                                           **
 *******************************************************************************

 DFT| Spin restricted Kohn-Sham (RKS) calculation                            RKS
 DFT| Multiplicity                                                             1
 DFT| Number of spin states                                                    1
 DFT| Charge                                                                   0
 DFT| Self-interaction correction (SIC)                                       NO
 DFT| Cutoffs: density                                              1.000000E-10
 DFT|          gradient                                             1.000000E-10
 DFT|          tau                                                  1.000000E-10
 DFT|          cutoff_smoothing_range                               0.000000E+00
 DFT| XC density smoothing                                                  NONE
 DFT| XC derivatives                                                          PW

 FUNCTIONAL| PBE:
 FUNCTIONAL| J.P.Perdew, K.Burke, M.Ernzerhof, Phys. Rev. Letter, vol. 77, n 18,
 FUNCTIONAL|  pp. 3865-3868, (1996)sx=0.750sc=1.000{spin unpolarized}           


 QS| Method:                                                                GAPW
 QS| Density plane wave grid type                        NON-SPHERICAL FULLSPACE
 QS| Number of grid levels:                                                    4
 QS| Density cutoff [a.u.]:                                                250.0
 QS| Multi grid cutoff [a.u.]: 1) grid level                               250.0
 QS|                           2) grid level                                83.3
 QS|                           3) grid level                                27.8
 QS|                           4) grid level                                 9.3
 QS| Grid level progression factor:                                          3.0
 QS| Relative density cutoff [a.u.]:                                        50.0
 QS| Interaction thresholds: eps_pgf_orb:                                1.0E-12
 QS|                         eps_filter_matrix:                          0.0E+00
 QS|                         eps_core_charge:                            1.0E-14
 QS|                         eps_rho_gspace:                             1.0E-12
 QS|                         eps_rho_rspace:                             1.0E-12
 QS|                         eps_gvg_rspace:                             1.0E-06
 QS|                         eps_ppl:                                    1.0E-02
 QS|                         eps_ppnl:                                   1.0E-08
 QS| GAPW|      One center basis from orbital basis primitives
 QS| GAPW|                   eps_fit:                                    1.0E-04
 QS| GAPW|                   eps_iso:                                    1.0E-12
 QS| GAPW|                   eps_svd:                                    1.0E-08
 QS| GAPW|                   eps_cpc:                                    1.0E-12
 QS| GAPW|   atom-r-grid: quadrature:                                     GC_LOG
 QS| GAPW|      atom-s-grid:  max l :                                          8
 QS| GAPW|      max_l_rho0 :                                                   2


 ATOMIC KIND INFORMATION

  1. Atomic kind: S                                     Number of atoms:       1

     Orbital Basis Set                                               aug-cc-pVQZ

       Number of orbital shell sets:                                          10
       Number of orbital shells:                                              22
       Number of primitive Cartesian functions:                               38
       Number of Cartesian basis functions:                                  109
       Number of spherical basis functions:                                   84
       Norm type:                                                              2

       Normalised Cartesian orbitals:

                        Set   Shell   Orbital            Exponent    Coefficient

                          1       1    1px               0.031700       0.019066
                          1       1    1py               0.031700       0.019066
                          1       1    1pz               0.031700       0.019066

                          2       1    1s                0.042800       0.067065

                          3       1    1dx2              0.074800       0.017609
                          3       1    1dxy              0.074800       0.030500
                          3       1    1dxz              0.074800       0.030500
                          3       1    1dy2              0.074800       0.017609
                          3       1    1dyz              0.074800       0.030500
                          3       1    1dz2              0.074800       0.017609

                          4       1    1px            1546.000000       6.096361
                                                       366.400000       8.627460
                                                       118.400000      11.042915
                                                        44.530000      12.167369
                                                        18.380000      10.704304
                                                         7.965000       6.710904
                                                         3.541000       2.621971
                                                         1.591000       0.435360
                                                         0.620500       0.011900
                                                         0.242000       0.000016
                                                         0.090140       0.000029
                          4       1    1py            1546.000000       6.096361
                                                       366.400000       8.627460
                                                       118.400000      11.042915
                                                        44.530000      12.167369
                                                        18.380000      10.704304
                                                         7.965000       6.710904
                                                         3.541000       2.621971
                                                         1.591000       0.435360
                                                         0.620500       0.011900
                                                         0.242000       0.000016
                                                         0.090140       0.000029
                          4       1    1pz            1546.000000       6.096361
                                                       366.400000       8.627460
                                                       118.400000      11.042915
                                                        44.530000      12.167369
                                                        18.380000      10.704304
                                                         7.965000       6.710904
                                                         3.541000       2.621971
                                                         1.591000       0.435360
                                                         0.620500       0.011900
                                                         0.242000       0.000016
                                                         0.090140       0.000029

                          4       2    2px            1546.000000       0.000000
                                                       366.400000       0.000000
                                                       118.400000       0.000000
                                                        44.530000       0.000000
                                                        18.380000       0.000000
                                                         7.965000       0.000000
                                                         3.541000       0.000000
                                                         1.591000       0.000000
                                                         0.620500       0.784996
                                                         0.242000       0.000000
                                                         0.090140       0.000000
                          4       2    2py            1546.000000       0.000000
                                                       366.400000       0.000000
                                                       118.400000       0.000000
                                                        44.530000       0.000000
                                                        18.380000       0.000000
                                                         7.965000       0.000000
                                                         3.541000       0.000000
                                                         1.591000       0.000000
                                                         0.620500       0.784996
                                                         0.242000       0.000000
                                                         0.090140       0.000000
                          4       2    2pz            1546.000000       0.000000
                                                       366.400000       0.000000
                                                       118.400000       0.000000
                                                        44.530000       0.000000
                                                        18.380000       0.000000
                                                         7.965000       0.000000
                                                         3.541000       0.000000
                                                         1.591000       0.000000
                                                         0.620500       0.784996
                                                         0.242000       0.000000
                                                         0.090140       0.000000

                          4       3    3px            1546.000000      -1.562979
                                                       366.400000      -2.190350
                                                       118.400000      -2.858551
                                                        44.530000      -3.158675
                                                        18.380000      -2.907508
                                                         7.965000      -1.831658
                                                         3.541000      -0.818282
                                                         1.591000       0.023514
                                                         0.620500       0.281689
                                                         0.242000       0.127217
                                                         0.090140       0.017521
                          4       3    3py            1546.000000      -1.562979
                                                       366.400000      -2.190350
                                                       118.400000      -2.858551
                                                        44.530000      -3.158675
                                                        18.380000      -2.907508
                                                         7.965000      -1.831658
                                                         3.541000      -0.818282
                                                         1.591000       0.023514
                                                         0.620500       0.281689
                                                         0.242000       0.127217
                                                         0.090140       0.017521
                          4       3    3pz            1546.000000      -1.562979
                                                       366.400000      -2.190350
                                                       118.400000      -2.858551
                                                        44.530000      -3.158675
                                                        18.380000      -2.907508
                                                         7.965000      -1.831658
                                                         3.541000      -0.818282
                                                         1.591000       0.023514
                                                         0.620500       0.281689
                                                         0.242000       0.127217
                                                         0.090140       0.017521

                          4       4    4px            1546.000000       0.000000
                                                       366.400000       0.000000
                                                       118.400000       0.000000
                                                        44.530000       0.000000
                                                        18.380000       0.000000
                                                         7.965000       0.000000
                                                         3.541000       0.000000
                                                         1.591000       0.000000
                                                         0.620500       0.000000
                                                         0.242000       0.241941
                                                         0.090140       0.000000
                          4       4    4py            1546.000000       0.000000
                                                       366.400000       0.000000
                                                       118.400000       0.000000
                                                        44.530000       0.000000
                                                        18.380000       0.000000
                                                         7.965000       0.000000
                                                         3.541000       0.000000
                                                         1.591000       0.000000
                                                         0.620500       0.000000
                                                         0.242000       0.241941
                                                         0.090140       0.000000
                          4       4    4pz            1546.000000       0.000000
                                                       366.400000       0.000000
                                                       118.400000       0.000000
                                                        44.530000       0.000000
                                                        18.380000       0.000000
                                                         7.965000       0.000000
                                                         3.541000       0.000000
                                                         1.591000       0.000000
                                                         0.620500       0.000000
                                                         0.242000       0.241941
                                                         0.090140       0.000000

                          4       5    5px            1546.000000       0.000000
                                                       366.400000       0.000000
                                                       118.400000       0.000000
                                                        44.530000       0.000000
                                                        18.380000       0.000000
                                                         7.965000       0.000000
                                                         3.541000       0.000000
                                                         1.591000       0.000000
                                                         0.620500       0.000000
                                                         0.242000       0.000000
                                                         0.090140       0.070402
                          4       5    5py            1546.000000       0.000000
                                                       366.400000       0.000000
                                                       118.400000       0.000000
                                                        44.530000       0.000000
                                                        18.380000       0.000000
                                                         7.965000       0.000000
                                                         3.541000       0.000000
                                                         1.591000       0.000000
                                                         0.620500       0.000000
                                                         0.242000       0.000000
                                                         0.090140       0.070402
                          4       5    5pz            1546.000000       0.000000
                                                       366.400000       0.000000
                                                       118.400000       0.000000
                                                        44.530000       0.000000
                                                        18.380000       0.000000
                                                         7.965000       0.000000
                                                         3.541000       0.000000
                                                         1.591000       0.000000
                                                         0.620500       0.000000
                                                         0.242000       0.000000
                                                         0.090140       0.070402

                          5       1    1s           727800.000000       0.419157
                                                    109000.000000       0.784464
                                                     24800.000000       1.358160
                                                      7014.000000       2.220672
                                                      2278.000000       3.453924
                                                       814.700000       5.054600
                                                       313.400000       6.662782
                                                       127.700000       7.267566
                                                        54.480000       5.499624
                                                        23.850000       2.041180
                                                         9.428000       0.167699
                                                         4.290000      -0.008048
                                                         1.909000       0.002524
                                                         0.627000      -0.000420
                                                         0.287300       0.000125
                                                         0.117200      -0.000018

                          5       2    2s           727800.000000      -0.115821
                                                    109000.000000      -0.216607
                                                     24800.000000      -0.375828
                                                      7014.000000      -0.615074
                                                      2278.000000      -0.966305
                                                       814.700000      -1.439541
                                                       313.400000      -2.001386
                                                       127.700000      -2.432752
                                                        54.480000      -2.388139
                                                        23.850000      -1.302634
                                                         9.428000       0.490160
                                                         4.290000       1.200040
                                                         1.909000       0.499763
                                                         0.627000       0.019555
                                                         0.287300      -0.002042
                                                         0.117200       0.000275

                          5       3    3s           727800.000000       0.000000
                                                    109000.000000       0.000000
                                                     24800.000000       0.000000
                                                      7014.000000       0.000000
                                                      2278.000000       0.000000
                                                       814.700000       0.000000
                                                       313.400000       0.000000
                                                       127.700000       0.000000
                                                        54.480000       0.000000
                                                        23.850000       0.000000
                                                         9.428000       0.000000
                                                         4.290000       0.000000
                                                         1.909000       0.000000
                                                         0.627000       0.502182
                                                         0.287300       0.000000
                                                         0.117200       0.000000

                          5       4    4s           727800.000000       0.000000
                                                    109000.000000       0.000000
                                                     24800.000000       0.000000
                                                      7014.000000       0.000000
                                                      2278.000000       0.000000
                                                       814.700000       0.000000
                                                       313.400000       0.000000
                                                       127.700000       0.000000
                                                        54.480000       0.000000
                                                        23.850000       0.000000
                                                         9.428000       0.000000
                                                         4.290000       0.000000
                                                         1.909000       0.000000
                                                         0.627000       0.000000
                                                         0.287300       0.279680
                                                         0.117200       0.000000

                          5       5    5s           727800.000000       0.033637
                                                    109000.000000       0.062827
                                                     24800.000000       0.109222
                                                      7014.000000       0.178353
                                                      2278.000000       0.281267
                                                       814.700000       0.418208
                                                       313.400000       0.586813
                                                       127.700000       0.716502
                                                        54.480000       0.727127
                                                        23.850000       0.407687
                                                         9.428000      -0.163171
                                                         4.290000      -0.532933
                                                         1.909000      -0.385618
                                                         0.627000       0.132474
                                                         0.287300       0.186505
                                                         0.117200       0.041179

                          5       6    6s           727800.000000       0.000000
                                                    109000.000000       0.000000
                                                     24800.000000       0.000000
                                                      7014.000000       0.000000
                                                      2278.000000       0.000000
                                                       814.700000       0.000000
                                                       313.400000       0.000000
                                                       127.700000       0.000000
                                                        54.480000       0.000000
                                                        23.850000       0.000000
                                                         9.428000       0.000000
                                                         4.290000       0.000000
                                                         1.909000       0.000000
                                                         0.627000       0.000000
                                                         0.287300       0.000000
                                                         0.117200       0.142760

                          6       1    1fx3              0.140000       0.017650
                          6       1    1fx2y             0.140000       0.039466
                          6       1    1fx2z             0.140000       0.039466
                          6       1    1fxy2             0.140000       0.039466
                          6       1    1fxyz             0.140000       0.068358
                          6       1    1fxz2             0.140000       0.039466
                          6       1    1fy3              0.140000       0.017650
                          6       1    1fy2z             0.140000       0.039466
                          6       1    1fyz2             0.140000       0.039466
                          6       1    1fz3              0.140000       0.017650

                          7       1    1dx2              1.250000       2.432215
                                                         0.504000       0.000000
                                                         0.203000       0.000000
                          7       1    1dxy              1.250000       4.212720
                                                         0.504000       0.000000
                                                         0.203000       0.000000
                          7       1    1dxz              1.250000       4.212720
                                                         0.504000       0.000000
                                                         0.203000       0.000000
                          7       1    1dy2              1.250000       2.432215
                                                         0.504000       0.000000
                                                         0.203000       0.000000
                          7       1    1dyz              1.250000       4.212720
                                                         0.504000       0.000000
                                                         0.203000       0.000000
                          7       1    1dz2              1.250000       2.432215
                                                         0.504000       0.000000
                                                         0.203000       0.000000

                          7       2    2dx2              1.250000       0.000000
                                                         0.504000       0.496207
                                                         0.203000       0.000000
                          7       2    2dxy              1.250000       0.000000
                                                         0.504000       0.859456
                                                         0.203000       0.000000
                          7       2    2dxz              1.250000       0.000000
                                                         0.504000       0.859456
                                                         0.203000       0.000000
                          7       2    2dy2              1.250000       0.000000
                                                         0.504000       0.496207
                                                         0.203000       0.000000
                          7       2    2dyz              1.250000       0.000000
                                                         0.504000       0.859456
                                                         0.203000       0.000000
                          7       2    2dz2              1.250000       0.000000
                                                         0.504000       0.496207
                                                         0.203000       0.000000

                          7       3    3dx2              1.250000       0.000000
                                                         0.504000       0.000000
                                                         0.203000       0.101048
                          7       3    3dxy              1.250000       0.000000
                                                         0.504000       0.000000
                                                         0.203000       0.175020
                          7       3    3dxz              1.250000       0.000000
                                                         0.504000       0.000000
                                                         0.203000       0.175020
                          7       3    3dy2              1.250000       0.000000
                                                         0.504000       0.000000
                                                         0.203000       0.101048
                          7       3    3dyz              1.250000       0.000000
                                                         0.504000       0.000000
                                                         0.203000       0.175020
                          7       3    3dz2              1.250000       0.000000
                                                         0.504000       0.000000
                                                         0.203000       0.101048

                          8       1    1gx4              0.297000       0.039493
                          8       1    1gx3y             0.297000       0.104488
                          8       1    1gx3z             0.297000       0.104488
                          8       1    1gx2y2            0.297000       0.134893
                          8       1    1gx2yz            0.297000       0.233641
                          8       1    1gx2z2            0.297000       0.134893
                          8       1    1gxy3             0.297000       0.104488
                          8       1    1gxy2z            0.297000       0.233641
                          8       1    1gxyz2            0.297000       0.233641
                          8       1    1gxz3             0.297000       0.104488
                          8       1    1gy4              0.297000       0.039493
                          8       1    1gy3z             0.297000       0.104488
                          8       1    1gy2z2            0.297000       0.134893
                          8       1    1gyz3             0.297000       0.104488
                          8       1    1gz4              0.297000       0.039493

                          9       1    1fx3              0.869000       1.073369
                                                         0.335000       0.000000
                          9       1    1fx2y             0.869000       2.400125
                                                         0.335000       0.000000
                          9       1    1fx2z             0.869000       2.400125
                                                         0.335000       0.000000
                          9       1    1fxy2             0.869000       2.400125
                                                         0.335000       0.000000
                          9       1    1fxyz             0.869000       4.157139
                                                         0.335000       0.000000
                          9       1    1fxz2             0.869000       2.400125
                                                         0.335000       0.000000
                          9       1    1fy3              0.869000       1.073369
                                                         0.335000       0.000000
                          9       1    1fy2z             0.869000       2.400125
                                                         0.335000       0.000000
                          9       1    1fyz2             0.869000       2.400125
                                                         0.335000       0.000000
                          9       1    1fz3              0.869000       1.073369
                                                         0.335000       0.000000

                          9       2    2fx3              0.869000       0.000000
                                                         0.335000       0.125691
                          9       2    2fx2y             0.869000       0.000000
                                                         0.335000       0.281054
                          9       2    2fx2z             0.869000       0.000000
                                                         0.335000       0.281054
                          9       2    2fxy2             0.869000       0.000000
                                                         0.335000       0.281054
                          9       2    2fxyz             0.869000       0.000000
                                                         0.335000       0.486800
                          9       2    2fxz2             0.869000       0.000000
                                                         0.335000       0.281054
                          9       2    2fy3              0.869000       0.000000
                                                         0.335000       0.125691
                          9       2    2fy2z             0.869000       0.000000
                                                         0.335000       0.281054
                          9       2    2fyz2             0.869000       0.000000
                                                         0.335000       0.281054
                          9       2    2fz3              0.869000       0.000000
                                                         0.335000       0.125691

                         10       1    1gx4              0.683000       0.390025
                         10       1    1gx3y             0.683000       1.031909
                         10       1    1gx3z             0.683000       1.031909
                         10       1    1gx2y2            0.683000       1.332189
                         10       1    1gx2yz            0.683000       2.307419
                         10       1    1gx2z2            0.683000       1.332189
                         10       1    1gxy3             0.683000       1.031909
                         10       1    1gxy2z            0.683000       2.307419
                         10       1    1gxyz2            0.683000       2.307419
                         10       1    1gxz3             0.683000       1.031909
                         10       1    1gy4              0.683000       0.390025
                         10       1    1gy3z             0.683000       1.031909
                         10       1    1gy2z2            0.683000       1.332189
                         10       1    1gyz3             0.683000       1.031909
                         10       1    1gz4              0.683000       0.390025

     RI Auxiliary Basis Set                                    aug-cc-pVQZ-OPTRI

       Number of orbital shell sets:                                          20
       Number of orbital shells:                                              20
       Number of primitive Cartesian functions:                               20
       Number of Cartesian basis functions:                                  125
       Number of spherical basis functions:                                   90
       Norm type:                                                              2

       Normalised Cartesian orbitals:

                        Set   Shell   Orbital            Exponent    Coefficient

                          1       1    1s                0.190611       0.205599

                          2       1    1fx3              0.223378       0.050500
                          2       1    1fx2y             0.223378       0.112922
                          2       1    1fx2z             0.223378       0.112922
                          2       1    1fxy2             0.223378       0.112922
                          2       1    1fxyz             0.223378       0.195587
                          2       1    1fxz2             0.223378       0.112922
                          2       1    1fy3              0.223378       0.050500
                          2       1    1fy2z             0.223378       0.112922
                          2       1    1fyz2             0.223378       0.112922
                          2       1    1fz3              0.223378       0.050500

                          3       1    1px               0.371060       0.412805
                          3       1    1py               0.371060       0.412805
                          3       1    1pz               0.371060       0.412805

                          4       1    1s                0.423875       0.374402

                          5       1    1gx4              0.455482       0.128006
                          5       1    1gx3y             0.455482       0.338673
                          5       1    1gx3z             0.455482       0.338673
                          5       1    1gx2y2            0.455482       0.437225
                          5       1    1gx2yz            0.455482       0.757295
                          5       1    1gx2z2            0.455482       0.437225
                          5       1    1gxy3             0.455482       0.338673
                          5       1    1gxy2z            0.455482       0.757295
                          5       1    1gxyz2            0.455482       0.757295
                          5       1    1gxz3             0.455482       0.338673
                          5       1    1gy4              0.455482       0.128006
                          5       1    1gy3z             0.455482       0.338673
                          5       1    1gy2z2            0.455482       0.437225
                          5       1    1gyz3             0.455482       0.338673
                          5       1    1gz4              0.455482       0.128006

                          6       1    1fx3              0.582314       0.436072
                          6       1    1fx2y             0.582314       0.975087
                          6       1    1fx2z             0.582314       0.975087
                          6       1    1fxy2             0.582314       0.975087
                          6       1    1fxyz             0.582314       1.688900
                          6       1    1fxz2             0.582314       0.975087
                          6       1    1fy3              0.582314       0.436072
                          6       1    1fy2z             0.582314       0.975087
                          6       1    1fyz2             0.582314       0.975087
                          6       1    1fz3              0.582314       0.436072

                          7       1    1dx2              0.686671       0.852550
                          7       1    1dxy              0.686671       1.476659
                          7       1    1dxz              0.686671       1.476659
                          7       1    1dy2              0.686671       0.852550
                          7       1    1dyz              0.686671       1.476659
                          7       1    1dz2              0.686671       0.852550

                          8       1    1hx5              0.883301       0.495676
                          8       1    1hx4y             0.883301       1.487027
                          8       1    1hx4z             0.883301       1.487027
                          8       1    1hx3y2            0.883301       2.271471
                          8       1    1hx3yz            0.883301       3.934303
                          8       1    1hx3z2            0.883301       2.271471
                          8       1    1hx2y3            0.883301       2.271471
                          8       1    1hx2y2z           0.883301       5.079163
                          8       1    1hx2yz2           0.883301       5.079163
                          8       1    1hx2z3            0.883301       2.271471
                          8       1    1hxy4             0.883301       1.487027
                          8       1    1hxy3z            0.883301       3.934303
                          8       1    1hxy2z2           0.883301       5.079163
                          8       1    1hxyz3            0.883301       3.934303
                          8       1    1hxz4             0.883301       1.487027
                          8       1    1hy5              0.883301       0.495676
                          8       1    1hy4z             0.883301       1.487027
                          8       1    1hy3z2            0.883301       2.271471
                          8       1    1hy2z3            0.883301       2.271471
                          8       1    1hyz4             0.883301       1.487027
                          8       1    1hz5              0.883301       0.495676

                          9       1    1s                0.979804       0.701883

                         10       1    1gx4              1.016802       1.165026
                         10       1    1gx3y             1.016802       3.082368
                         10       1    1gx3z             1.016802       3.082368
                         10       1    1gx2y2            1.016802       3.979320
                         10       1    1gx2yz            1.016802       6.892385
                         10       1    1gx2z2            1.016802       3.979320
                         10       1    1gxy3             1.016802       3.082368
                         10       1    1gxy2z            1.016802       6.892385
                         10       1    1gxyz2            1.016802       6.892385
                         10       1    1gxz3             1.016802       3.082368
                         10       1    1gy4              1.016802       1.165026
                         10       1    1gy3z             1.016802       3.082368
                         10       1    1gy2z2            1.016802       3.979320
                         10       1    1gyz3             1.016802       3.082368
                         10       1    1gz4              1.016802       1.165026

                         11       1    1px               1.128232       1.657441
                         11       1    1py               1.128232       1.657441
                         11       1    1pz               1.128232       1.657441

                         12       1    1px               1.725148       2.818208
                         12       1    1py               1.725148       2.818208
                         12       1    1pz               1.725148       2.818208

                         13       1    1dx2              2.043668       5.749467
                         13       1    1dxy              2.043668       9.958368
                         13       1    1dxz              2.043668       9.958368
                         13       1    1dy2              2.043668       5.749467
                         13       1    1dyz              2.043668       9.958368
                         13       1    1dz2              2.043668       5.749467

                         14       1    1s                2.081610       1.235121

                         15       1    1fx3              5.242023      61.210655
                         15       1    1fx2y             5.242023     136.871185
                         15       1    1fx2z             5.242023     136.871185
                         15       1    1fxy2             5.242023     136.871185
                         15       1    1fxyz             5.242023     237.067846
                         15       1    1fxz2             5.242023     136.871185
                         15       1    1fy3              5.242023      61.210655
                         15       1    1fy2z             5.242023     136.871185
                         15       1    1fyz2             5.242023     136.871185
                         15       1    1fz3              5.242023      61.210655

                         16       1    1dx2              6.805046      47.191504
                         16       1    1dxy              6.805046      81.738083
                         16       1    1dxz              6.805046      81.738083
                         16       1    1dy2              6.805046      47.191504
                         16       1    1dyz              6.805046      81.738083
                         16       1    1dz2              6.805046      47.191504

                         17       1    1px               8.867824      21.812800
                         17       1    1py               8.867824      21.812800
                         17       1    1pz               8.867824      21.812800

                         18       1    1s               13.218736       4.940860

                         19       1    1px              15.751250      44.728452
                         19       1    1py              15.751250      44.728452
                         19       1    1pz              15.751250      44.728452

                         20       1    1dx2             26.085061     495.558815
                         20       1    1dxy             26.085061     858.333045
                         20       1    1dxz             26.085061     858.333045
                         20       1    1dy2             26.085061     495.558815
                         20       1    1dyz             26.085061     858.333045
                         20       1    1dz2             26.085061     495.558815

       Atomic covalent radius [Angstrom]:                                  1.020

       Atomic van der Waals radius [Angstrom]:                             1.800

     The atoms of this atomic kind are PAW atoms (GAPW):
       Hard Gaussian function radius:                                      1.512
       Rho0 radius:                                                        1.512
       Maximum GTO radius used for PAW projector construction:            24.566

     GAPW Soft Basis Set                                        aug-cc-pVQZ_soft

       Number of orbital shell sets:                                          10
       Number of orbital shells:                                              22
       Number of primitive Cartesian functions:                               20
       Number of Cartesian basis functions:                                  109
       Number of spherical basis functions:                                   84
       Norm type:                                                              2

       Normalised Cartesian orbitals:

                        Set   Shell   Orbital            Exponent    Coefficient

                          1       1    1px               0.031700       0.019066
                          1       1    1py               0.031700       0.019066
                          1       1    1pz               0.031700       0.019066

                          2       1    1s                0.042800       0.067065

                          3       1    1dx2              0.074800       0.017609
                          3       1    1dxy              0.074800       0.030500
                          3       1    1dxz              0.074800       0.030500
                          3       1    1dy2              0.074800       0.017609
                          3       1    1dyz              0.074800       0.030500
                          3       1    1dz2              0.074800       0.017609

                          4       1    1px               3.541000       2.621971
                                                         1.591000       0.435360
                                                         0.620500       0.011900
                                                         0.242000       0.000016
                                                         0.090140       0.000029
                          4       1    1py               3.541000       2.621971
                                                         1.591000       0.435360
                                                         0.620500       0.011900
                                                         0.242000       0.000016
                                                         0.090140       0.000029
                          4       1    1pz               3.541000       2.621971
                                                         1.591000       0.435360
                                                         0.620500       0.011900
                                                         0.242000       0.000016
                                                         0.090140       0.000029

                          4       2    2px               3.541000       0.000000
                                                         1.591000       0.000000
                                                         0.620500       0.784996
                                                         0.242000       0.000000
                                                         0.090140       0.000000
                          4       2    2py               3.541000       0.000000
                                                         1.591000       0.000000
                                                         0.620500       0.784996
                                                         0.242000       0.000000
                                                         0.090140       0.000000
                          4       2    2pz               3.541000       0.000000
                                                         1.591000       0.000000
                                                         0.620500       0.784996
                                                         0.242000       0.000000
                                                         0.090140       0.000000

                          4       3    3px               3.541000      -0.818282
                                                         1.591000       0.023514
                                                         0.620500       0.281689
                                                         0.242000       0.127217
                                                         0.090140       0.017521
                          4       3    3py               3.541000      -0.818282
                                                         1.591000       0.023514
                                                         0.620500       0.281689
                                                         0.242000       0.127217
                                                         0.090140       0.017521
                          4       3    3pz               3.541000      -0.818282
                                                         1.591000       0.023514
                                                         0.620500       0.281689
                                                         0.242000       0.127217
                                                         0.090140       0.017521

                          4       4    4px               3.541000       0.000000
                                                         1.591000       0.000000
                                                         0.620500       0.000000
                                                         0.242000       0.241941
                                                         0.090140       0.000000
                          4       4    4py               3.541000       0.000000
                                                         1.591000       0.000000
                                                         0.620500       0.000000
                                                         0.242000       0.241941
                                                         0.090140       0.000000
                          4       4    4pz               3.541000       0.000000
                                                         1.591000       0.000000
                                                         0.620500       0.000000
                                                         0.242000       0.241941
                                                         0.090140       0.000000

                          4       5    5px               3.541000       0.000000
                                                         1.591000       0.000000
                                                         0.620500       0.000000
                                                         0.242000       0.000000
                                                         0.090140       0.070402
                          4       5    5py               3.541000       0.000000
                                                         1.591000       0.000000
                                                         0.620500       0.000000
                                                         0.242000       0.000000
                                                         0.090140       0.070402
                          4       5    5pz               3.541000       0.000000
                                                         1.591000       0.000000
                                                         0.620500       0.000000
                                                         0.242000       0.000000
                                                         0.090140       0.070402

                          5       1    1s                1.909000       0.002524
                                                         0.627000      -0.000420
                                                         0.287300       0.000125
                                                         0.117200      -0.000018

                          5       2    2s                1.909000       0.499763
                                                         0.627000       0.019555
                                                         0.287300      -0.002042
                                                         0.117200       0.000275

                          5       3    3s                1.909000       0.000000
                                                         0.627000       0.502182
                                                         0.287300       0.000000
                                                         0.117200       0.000000

                          5       4    4s                1.909000       0.000000
                                                         0.627000       0.000000
                                                         0.287300       0.279680
                                                         0.117200       0.000000

                          5       5    5s                1.909000      -0.385618
                                                         0.627000       0.132474
                                                         0.287300       0.186505
                                                         0.117200       0.041179

                          5       6    6s                1.909000       0.000000
                                                         0.627000       0.000000
                                                         0.287300       0.000000
                                                         0.117200       0.142760

                          6       1    1fx3              0.140000       0.017650
                          6       1    1fx2y             0.140000       0.039466
                          6       1    1fx2z             0.140000       0.039466
                          6       1    1fxy2             0.140000       0.039466
                          6       1    1fxyz             0.140000       0.068358
                          6       1    1fxz2             0.140000       0.039466
                          6       1    1fy3              0.140000       0.017650
                          6       1    1fy2z             0.140000       0.039466
                          6       1    1fyz2             0.140000       0.039466
                          6       1    1fz3              0.140000       0.017650

                          7       1    1dx2              1.250000       2.432215
                                                         0.504000       0.000000
                                                         0.203000       0.000000
                          7       1    1dxy              1.250000       4.212720
                                                         0.504000       0.000000
                                                         0.203000       0.000000
                          7       1    1dxz              1.250000       4.212720
                                                         0.504000       0.000000
                                                         0.203000       0.000000
                          7       1    1dy2              1.250000       2.432215
                                                         0.504000       0.000000
                                                         0.203000       0.000000
                          7       1    1dyz              1.250000       4.212720
                                                         0.504000       0.000000
                                                         0.203000       0.000000
                          7       1    1dz2              1.250000       2.432215
                                                         0.504000       0.000000
                                                         0.203000       0.000000

                          7       2    2dx2              1.250000       0.000000
                                                         0.504000       0.496207
                                                         0.203000       0.000000
                          7       2    2dxy              1.250000       0.000000
                                                         0.504000       0.859456
                                                         0.203000       0.000000
                          7       2    2dxz              1.250000       0.000000
                                                         0.504000       0.859456
                                                         0.203000       0.000000
                          7       2    2dy2              1.250000       0.000000
                                                         0.504000       0.496207
                                                         0.203000       0.000000
                          7       2    2dyz              1.250000       0.000000
                                                         0.504000       0.859456
                                                         0.203000       0.000000
                          7       2    2dz2              1.250000       0.000000
                                                         0.504000       0.496207
                                                         0.203000       0.000000

                          7       3    3dx2              1.250000       0.000000
                                                         0.504000       0.000000
                                                         0.203000       0.101048
                          7       3    3dxy              1.250000       0.000000
                                                         0.504000       0.000000
                                                         0.203000       0.175020
                          7       3    3dxz              1.250000       0.000000
                                                         0.504000       0.000000
                                                         0.203000       0.175020
                          7       3    3dy2              1.250000       0.000000
                                                         0.504000       0.000000
                                                         0.203000       0.101048
                          7       3    3dyz              1.250000       0.000000
                                                         0.504000       0.000000
                                                         0.203000       0.175020
                          7       3    3dz2              1.250000       0.000000
                                                         0.504000       0.000000
                                                         0.203000       0.101048

                          8       1    1gx4              0.297000       0.039493
                          8       1    1gx3y             0.297000       0.104488
                          8       1    1gx3z             0.297000       0.104488
                          8       1    1gx2y2            0.297000       0.134893
                          8       1    1gx2yz            0.297000       0.233641
                          8       1    1gx2z2            0.297000       0.134893
                          8       1    1gxy3             0.297000       0.104488
                          8       1    1gxy2z            0.297000       0.233641
                          8       1    1gxyz2            0.297000       0.233641
                          8       1    1gxz3             0.297000       0.104488
                          8       1    1gy4              0.297000       0.039493
                          8       1    1gy3z             0.297000       0.104488
                          8       1    1gy2z2            0.297000       0.134893
                          8       1    1gyz3             0.297000       0.104488
                          8       1    1gz4              0.297000       0.039493

                          9       1    1fx3              0.869000       1.073369
                                                         0.335000       0.000000
                          9       1    1fx2y             0.869000       2.400125
                                                         0.335000       0.000000
                          9       1    1fx2z             0.869000       2.400125
                                                         0.335000       0.000000
                          9       1    1fxy2             0.869000       2.400125
                                                         0.335000       0.000000
                          9       1    1fxyz             0.869000       4.157139
                                                         0.335000       0.000000
                          9       1    1fxz2             0.869000       2.400125
                                                         0.335000       0.000000
                          9       1    1fy3              0.869000       1.073369
                                                         0.335000       0.000000
                          9       1    1fy2z             0.869000       2.400125
                                                         0.335000       0.000000
                          9       1    1fyz2             0.869000       2.400125
                                                         0.335000       0.000000
                          9       1    1fz3              0.869000       1.073369
                                                         0.335000       0.000000

                          9       2    2fx3              0.869000       0.000000
                                                         0.335000       0.125691
                          9       2    2fx2y             0.869000       0.000000
                                                         0.335000       0.281054
                          9       2    2fx2z             0.869000       0.000000
                                                         0.335000       0.281054
                          9       2    2fxy2             0.869000       0.000000
                                                         0.335000       0.281054
                          9       2    2fxyz             0.869000       0.000000
                                                         0.335000       0.486800
                          9       2    2fxz2             0.869000       0.000000
                                                         0.335000       0.281054
                          9       2    2fy3              0.869000       0.000000
                                                         0.335000       0.125691
                          9       2    2fy2z             0.869000       0.000000
                                                         0.335000       0.281054
                          9       2    2fyz2             0.869000       0.000000
                                                         0.335000       0.281054
                          9       2    2fz3              0.869000       0.000000
                                                         0.335000       0.125691

                         10       1    1gx4              0.683000       0.390025
                         10       1    1gx3y             0.683000       1.031909
                         10       1    1gx3z             0.683000       1.031909
                         10       1    1gx2y2            0.683000       1.332189
                         10       1    1gx2yz            0.683000       2.307419
                         10       1    1gx2z2            0.683000       1.332189
                         10       1    1gxy3             0.683000       1.031909
                         10       1    1gxy2z            0.683000       2.307419
[...]
            7 start_bse_calculation
            6 rpa_num_int
            5 rpa_ri_compute_en
            4 mp2_gpw_main
            3 mp2_main
            2 qs_energies
            1 CP2K
            5 rpa_ri_compute_en
            4 mp2_gpw_main
            3 mp2_main
            2 qs_energies
            1 CP2K
            1 CP2K
            5 rpa_ri_compute_en
            4 mp2_gpw_main
            3 mp2_main
            2 qs_energies
            1 CP2K

 *******************************************************************************
 *   ___                                                                       *
 *  /   \                                                                      *
 * [ABORT]                                                                     *
 *  \___/  Matrix (A-B) is not positive definite. Hermitian diagonalization of *
 *    |                      full ABBA matrix is ill-defined.                  *
 *  O/|                                                                        *
 * /| |                                                                        *
 * / \                                                     bse_full_diag.F:392 *
 *******************************************************************************


 ===== Routine Calling Stack ===== 

            8 create_hermitian_form_of_ABBA
            7 start_bse_calculation
            6 rpa_num_int
            5 rpa_ri_compute_en
            4 mp2_gpw_main

 *******************************************************************************
 *   ___                                                                       *
 *  /   \                                                                      *
 * [ABORT]                                                                     *
 *  \___/  Matrix (A-B) is not positive definite. Hermitian diagonalization of *
 *    |                      full ABBA matrix is ill-defined.                  *
 *  O/|                                                                        *
 * /| |                                                                        *
 * / \                                                     bse_full_diag.F:392 *
 *******************************************************************************


 ===== Routine Calling Stack ===== 

            8 create_hermitian_form_of_ABBA
            7 start_bse_calculation
            6 rpa_num_int
            5 rpa_ri_compute_en
            4 mp2_gpw_main
            3 mp2_main
            2 qs_energies
            1 CP2K

 *******************************************************************************
 *   ___                                                                       *
 *  /   \                                                                      *
 * [ABORT]                                                                     *
 *  \___/  Matrix (A-B) is not positive definite. Hermitian diagonalization of *
 *    |                      full ABBA matrix is ill-defined.                  *
 *  O/|                                                                        *
 * /| |                                                                        *
 * / \                                                     bse_full_diag.F:392 *
 *******************************************************************************


 ===== Routine Calling Stack ===== 

            8 create_hermitian_form_of_ABBA
            7 start_bse_calculation
            6 rpa_num_int
            5 rpa_ri_compute_en
            4 mp2_gpw_main
            3 mp2_main
            2 qs_energies
            1 CP2K

 *******************************************************************************
 *   ___                                                                       *
 *  /   \                                                                      *
 * [ABORT]                                                                     *
 *  \___/  Matrix (A-B) is not positive definite. Hermitian diagonalization of *
 *    |                      full ABBA matrix is ill-defined.                  *
 *  O/|                                                                        *
 * /| |                                                                        *
 * / \                                                     bse_full_diag.F:392 *
 *******************************************************************************


 ===== Routine Calling Stack ===== 

            8 create_hermitian_form_of_ABBA
            7 start_bse_calculation
            6 rpa_num_int
            5 rpa_ri_compute_en
            4 mp2_gpw_main
            3 mp2_main
            2 qs_energies
            1 CP2K

 *******************************************************************************
 *   ___                                                                       *
 *  /   \                                                                      *
 * [ABORT]                                                                     *
 *  \___/  Matrix (A-B) is not positive definite. Hermitian diagonalization of *
 *    |                      full ABBA matrix is ill-defined.                  *
 *  O/|                                                                        *
 * /| |                                                                        *
 * / \                                                     bse_full_diag.F:392 *
 *******************************************************************************


 ===== Routine Calling Stack ===== 

            8 create_hermitian_form_of_ABBA
            7 start_bse_calculation
            6 rpa_num_int
            5 rpa_ri_compute_en
            4 mp2_gpw_main
            3 mp2_main
            2 qs_energies
            1 CP2K

 *******************************************************************************
 *   ___                                                                       *
 *  /   \                                                                      *
 * [ABORT]                                                                     *
 *  \___/  Matrix (A-B) is not positive definite. Hermitian diagonalization of *
 *    |                      full ABBA matrix is ill-defined.                  *
 *  O/|                                                                        *
 * /| |                                                                        *
 * / \                                                     bse_full_diag.F:392 *
 *******************************************************************************


 ===== Routine Calling Stack ===== 

            8 create_hermitian_form_of_ABBA
            7 start_bse_calculation
            6 rpa_num_int
            5 rpa_ri_compute_en
            4 mp2_gpw_main
            3 mp2_main
            2 qs_energies
            1 CP2K
            3 mp2_main
            2 qs_energies
            1 CP2K

 *******************************************************************************
 *   ___                                                                       *
 *  /   \                                                                      *
 * [ABORT]                                                                     *
 *  \___/  Matrix (A-B) is not positive definite. Hermitian diagonalization of *
 *    |                      full ABBA matrix is ill-defined.                  *
 *  O/|                                                                        *
 * /| |                                                                        *
 * / \                                                     bse_full_diag.F:392 *
 *******************************************************************************


 ===== Routine Calling Stack ===== 

            8 create_hermitian_form_of_ABBA
            7 start_bse_calculation
            6 rpa_num_int
            5 rpa_ri_compute_en
            4 mp2_gpw_main
            3 mp2_main
            2 qs_energies
            1 CP2K

 *******************************************************************************
 *   ___                                                                       *
 *  /   \                                                                      *
 * [ABORT]                                                                     *
 *  \___/  Matrix (A-B) is not positive definite. Hermitian diagonalization of *
 *    |                      full ABBA matrix is ill-defined.                  *
 *  O/|                                                                        *
 * /| |                                                                        *
 * / \                                                     bse_full_diag.F:392 *
 *******************************************************************************


 ===== Routine Calling Stack ===== 

            8 create_hermitian_form_of_ABBA
            7 start_bse_calculation
            6 rpa_num_int
            5 rpa_ri_compute_en
            4 mp2_gpw_main
            3 mp2_main
            2 qs_energies
            1 CP2K

 *******************************************************************************
 *   ___                                                                       *
 *  /   \                                                                      *
 * [ABORT]                                                                     *
 *  \___/  Matrix (A-B) is not positive definite. Hermitian diagonalization of *
 *    |                      full ABBA matrix is ill-defined.                  *
 *  O/|                                                                        *
 * /| |                                                                        *
 * / \                                                     bse_full_diag.F:392 *
 *******************************************************************************


 ===== Routine Calling Stack ===== 

            8 create_hermitian_form_of_ABBA
            7 start_bse_calculation
            6 rpa_num_int
            5 rpa_ri_compute_en
            4 mp2_gpw_main
            3 mp2_main
            2 qs_energies
            1 CP2K

 *******************************************************************************
 *   ___                                                                       *
 *  /   \                                                                      *
 * [ABORT]                                                                     *
 *  \___/  Matrix (A-B) is not positive definite. Hermitian diagonalization of *
 *    |                      full ABBA matrix is ill-defined.                  *
 *  O/|                                                                        *
 * /| |                                                                        *
 * / \                                                     bse_full_diag.F:392 *
 *******************************************************************************


 ===== Routine Calling Stack ===== 

            8 create_hermitian_form_of_ABBA
            7 start_bse_calculation
            6 rpa_num_int
            5 rpa_ri_compute_en
            4 mp2_gpw_main
            3 mp2_main
            2 qs_energies
            1 CP2K

 *******************************************************************************
 *   ___                                                                       *
 *  /   \                                                                      *
 * [ABORT]                                                                     *
 *  \___/  Matrix (A-B) is not positive definite. Hermitian diagonalization of *
 *    |                      full ABBA matrix is ill-defined.                  *
 *  O/|                                                                        *
 * /| |                                                                        *
 * / \                                                     bse_full_diag.F:392 *
 *******************************************************************************


 ===== Routine Calling Stack ===== 

            8 create_hermitian_form_of_ABBA
            7 start_bse_calculation
            6 rpa_num_int
            5 rpa_ri_compute_en
            4 mp2_gpw_main
            3 mp2_main
            2 qs_energies
            1 CP2K

 *******************************************************************************
 *   ___                                                                       *
 *  /   \                                                                      *
 * [ABORT]                                                                     *
 *  \___/  Matrix (A-B) is not positive definite. Hermitian diagonalization of *
 *    |                      full ABBA matrix is ill-defined.                  *
 *  O/|                                                                        *
 * /| |                                                                        *
 * / \                                                     bse_full_diag.F:392 *
 *******************************************************************************


 ===== Routine Calling Stack ===== 

            8 create_hermitian_form_of_ABBA
            7 start_bse_calculation
            6 rpa_num_int
            5 rpa_ri_compute_en
            4 mp2_gpw_main
            3 mp2_main
            2 qs_energies
            1 CP2K

 *******************************************************************************
 *   ___                                                                       *
 *  /   \                                                                      *
 * [ABORT]                                                                     *
 *  \___/  Matrix (A-B) is not positive definite. Hermitian diagonalization of *
 *    |                      full ABBA matrix is ill-defined.                  *
 *  O/|                                                                        *
 * /| |                                                                        *
 * / \                                                     
 *******************************************************************************
 *   ___                                                                       *
 *  /   \                                                                      *
 * [ABORT]                                                                     *
 *  \___/  Matrix (A-B) is not positive definite. Hermitian diagonalization of *
 *    |                      full ABBA matrix is ill-defined.                  *
 *  O/|                                                                        *
 * /| |                                                                        *
 * / \                                                     bse_full_diag.F:392 *
 *******************************************************************************


 ===== Routine Calling Stack ===== 


 *******************************************************************************
 *   ___                                                                       *
 *  /   \                                                                      *
 * [ABORT]                                                                     *
 *  \___/  Matrix (A-B) is not positive definite. Hermitian diagonalization of *
 *    |                      full ABBA matrix is ill-defined.                  *
 *  O/|                                                                        *
 * /| |                                                                        *
 * / \                                                     bse_full_diag.F:392 *
 *******************************************************************************


 ===== Routine Calling Stack ===== 

            8 create_hermitian_form_of_ABBA
            7 start_bse_calculation
            6 rpa_num_int
            5 rpa_ri_compute_en
            4 mp2_gpw_main
            3 mp2_main
            2 qs_energies
            1 CP2K

 *******************************************************************************
 *   ___                                                                       *
 *  /   \                                                                      *
 * [ABORT]                                                                     *
 *  \___/  Matrix (A-B) is not positive definite. Hermitian diagonalization of *
 *    |                      full ABBA matrix is ill-defined.                  *
 *  O/|                                                                        *
 * /| |                                                                        *
 * / \                                                     
 *******************************************************************************
 *   ___                                                                       *
 *  /   \                                                                      *
 * [ABORT]                                                                     *
 *  \___/  Matrix (A-B) is not positive definite. Hermitian diagonalization of *
 *    |                      full ABBA matrix is ill-defined.                  *
 *  O/|                                                                        *
 * /| |                                                                        *
 * / \                                                     bse_full_diag.F:392 *
 *******************************************************************************


 ===== Routine Calling Stack ===== 

            8 create_hermitian_form_of_ABBA
            7 start_bse_calculation
            6 rpa_num_int
            5 rpa_ri_compute_en
            4 mp2_gpw_main
            3 mp2_main
            2 qs_energies
            1 CP2K

 *******************************************************************************
 *   ___                                                                       *
 *  /   \                                                                      *
 * [ABORT]                                                                     *
 *  \___/  Matrix (A-B) is not positive definite. Hermitian diagonalization of *
 *    |                      full ABBA matrix is ill-defined.                  *
 *  O/|                                                                        *
 * /| |                                                                        *
 * / \                                                     bse_full_diag.F:392 *
 *******************************************************************************


 ===== Routine Calling Stack ===== 

            8 create_hermitian_form_of_ABBA
            7 start_bse_calculation
            6 rpa_num_int
            5 rpa_ri_compute_en
            4 mp2_gpw_main
            3 mp2_main
            2 qs_energies
            1 CP2K
bse_full_diag.F:392 *
 *******************************************************************************


 ===== Routine Calling Stack ===== 

            8 create_hermitian_form_of_ABBA
            7 start_bse_calculation
            6 rpa_num_int
            5 rpa_ri_compute_en
            4 mp2_gpw_main
            3 mp2_main
            2 qs_energies
            1 CP2K
            8 create_hermitian_form_of_ABBA
            7 start_bse_calculation
            6 rpa_num_int
            5 rpa_ri_compute_en
            4 mp2_gpw_main
            3 mp2_main
            2 qs_energies
            1 CP2K
bse_full_diag.F:392 *
 *******************************************************************************


 ===== Routine Calling Stack ===== 

            8 create_hermitian_form_of_ABBA
            7 start_bse_calculation
            6 rpa_num_int
            5 rpa_ri_compute_en
            4 mp2_gpw_main
            3 mp2_main
            2 qs_energies
            1 CP2K
