 DBCSR| CPU Multiplication driver                                           BLAS (U)
 DBCSR| Multrec recursion limit                                              512 (U)
 DBCSR| Multiplication stack size                                           1000 (D)
 DBCSR| Maximum elements for images                                    UNLIMITED (U)
 DBCSR| Multiplicative factor virtual images                                   1 (U)
 DBCSR| Use multiplication densification                                       T (D)
 DBCSR| Multiplication size stacks                                             3 (U)
 DBCSR| Use memory pool for CPU allocation                                     F (U)
 DBCSR| Number of 3D layers                                               SINGLE (U)
 DBCSR| Use MPI memory allocation                                              F (U)
 DBCSR| Use RMA algorithm                                                      F (U)
 DBCSR| Use Communication thread                                               T (U)
 DBCSR| Communication thread load                                             75 (D)
 DBCSR| MPI: My process id                                                     0
 DBCSR| MPI: Number of processes                                              24
 DBCSR| OMP: Current number of threads                                         4
 DBCSR| OMP: Max number of threads                                             4
 DBCSR| Split modifier for TAS multiplication algorithm                  1.0E+00 (U)


  **** **** ******  **  PROGRAM STARTED AT               2025-03-16 14:31:41.535
 ***** ** ***  *** **   PROGRAM STARTED ON                          i04r07c05s10
 **    ****   ******    PROGRAM STARTED BY                               di38fab
 ***** **    ** ** **   PROGRAM PROCESS ID                               2270865
  **** **  *******  **  PROGRAM STARTED IN /hppfs/scratch/04/di38fab/05_MOL/W4-1
                                           1+ALK/bn3pi/DZVP/GW+BSE/1e-3

 CP2K| version string:                 CP2K version 2025.1 (Development Version)
 CP2K| source code revision number:                                  git:d2e611a
 CP2K| cp2kflags: omp libint fftw3 libxc parallel scalapack max_contr=4         
 CP2K| is freely available from                            https://www.cp2k.org/
 CP2K| Program compiled at                       Thu 06 Mar 2025 05:09:20 PM CET
 CP2K| Program compiled on                                               login02
 CP2K| Program compiled for                                        Supermuc-foss
 CP2K| Data directory path                  /hppfs/work/pn36zo/di38fab/cp2k/data
 CP2K| Input file name                                                    GW.inp

 GLOBAL| Force Environment number                                              1
 GLOBAL| Basis set file name            /hppfs/scratch/04/di38fab/04_TMD/BASIS_A
 GLOBAL| Potential file name            /hppfs/work/pn36zo/di38fab/cp2k/data/ALL
 GLOBAL| MM Potential file name                                     MM_POTENTIAL
 GLOBAL| Coordinate file name                                      __STD_INPUT__
 GLOBAL| Method name                                                        CP2K
 GLOBAL| Project name                                                       MoS2
 GLOBAL| Run type                                                         ENERGY
 GLOBAL| FFT library                                                       FFTW3
 GLOBAL| Diagonalization library                                       ScaLAPACK
 GLOBAL| DGEMM library                                                      BLAS
 GLOBAL| Orthonormality check for eigenvectors                          DISABLED
 GLOBAL| Matrix multiplication library                                 ScaLAPACK
 GLOBAL| All-to-all communication in single precision                          F
 GLOBAL| FFTs using library dependent lengths                                  F
 GLOBAL| Grid backend                                                       AUTO
 GLOBAL| Global print level                                               MEDIUM
 GLOBAL| MPI I/O enabled                                                       T
 GLOBAL| Total number of message passing processes                            24
 GLOBAL| Number of threads for this process                                    4
 GLOBAL| This output is from process                                           0
 GLOBAL| OpenMP stack size per thread (OMP_STACKSIZE)                    default
 GLOBAL| CPU model name             Intel(R) Xeon(R) Platinum 8174 CPU @ 3.10GHz

 MEMORY| system memory details [Kb]
 MEMORY|                        rank 0           min           max       average
 MEMORY| MemTotal             98436664      98436664      98436664      98436664
 MEMORY| MemFree              84070992      84070992      84395776      84233384
 MEMORY| Buffers                     0             0             0             0
 MEMORY| Cached                2413452       2396196       2413452       2404824
 MEMORY| Slab                  1218236       1166876       1218236       1192556
 MEMORY| SReclaimable           271688        256460        271688        264074
 MEMORY| MemLikelyFree        86756132      86756132      87048432      86902282


 *** Fundamental physical constants (SI units) ***

 *** Literature: B. J. Mohr and B. N. Taylor,
 ***             CODATA recommended values of the fundamental physical
 ***             constants: 2006, Web Version 5.1
 ***             http://physics.nist.gov/constants

 Speed of light in vacuum [m/s]                             2.99792458000000E+08
 Magnetic constant or permeability of vacuum [N/A**2]       1.25663706143592E-06
 Electric constant or permittivity of vacuum [F/m]          8.85418781762039E-12
 Planck constant (h) [J*s]                                  6.62606896000000E-34
 Planck constant (h-bar) [J*s]                              1.05457162825177E-34
 Elementary charge [C]                                      1.60217648700000E-19
 Electron mass [kg]                                         9.10938215000000E-31
 Electron g factor [ ]                                     -2.00231930436220E+00
 Proton mass [kg]                                           1.67262163700000E-27
 Fine-structure constant                                    7.29735253760000E-03
 Rydberg constant [1/m]                                     1.09737315685270E+07
 Avogadro constant [1/mol]                                  6.02214179000000E+23
 Boltzmann constant [J/K]                                   1.38065040000000E-23
 Atomic mass unit [kg]                                      1.66053878200000E-27
 Bohr radius [m]                                            5.29177208590000E-11

 *** Conversion factors ***

 [u] -> [a.u.]                                              1.82288848426455E+03
 [Angstrom] -> [Bohr] = [a.u.]                              1.88972613288564E+00
 [a.u.] = [Bohr] -> [Angstrom]                              5.29177208590000E-01
 [a.u.] -> [s]                                              2.41888432650478E-17
 [a.u.] -> [fs]                                             2.41888432650478E-02
 [a.u.] -> [J]                                              4.35974393937059E-18
 [a.u.] -> [N]                                              8.23872205491840E-08
 [a.u.] -> [K]                                              3.15774647902944E+05
 [a.u.] -> [kJ/mol]                                         2.62549961709828E+03
 [a.u.] -> [kcal/mol]                                       6.27509468713739E+02
 [a.u.] -> [Pa]                                             2.94210107994716E+13
 [a.u.] -> [bar]                                            2.94210107994716E+08
 [a.u.] -> [atm]                                            2.90362800883016E+08
 [a.u.] -> [eV]                                             2.72113838565563E+01
 [a.u.] -> [Hz]                                             6.57968392072181E+15
 [a.u.] -> [1/cm] (wave numbers)                            2.19474631370540E+05
 [a.u./Bohr**2] -> [1/cm]                                   5.14048714338585E+03
 

 CELL_TOP| Volume [angstrom^3]:                                     27000.000000
 CELL_TOP| Vector a [angstrom    30.000     0.000     0.000   |a| =    30.000000
 CELL_TOP| Vector b [angstrom     0.000    30.000     0.000   |b| =    30.000000
 CELL_TOP| Vector c [angstrom     0.000     0.000    30.000   |c| =    30.000000
 CELL_TOP| Angle (b,c), alpha [degree]:                                90.000000
 CELL_TOP| Angle (a,c), beta  [degree]:                                90.000000
 CELL_TOP| Angle (a,b), gamma [degree]:                                90.000000
 CELL_TOP| Numerically orthorhombic:                                         YES
 CELL_TOP| Periodicity                                                      NONE

 GENERATE|  Preliminary Number of Bonds generated:                             0
 GENERATE|  Achieved consistency in connectivity generation.

 CELL| Volume [angstrom^3]:                                         27000.000000
 CELL| Vector a [angstrom]:      30.000     0.000     0.000   |a| =    30.000000
 CELL| Vector b [angstrom]:       0.000    30.000     0.000   |b| =    30.000000
 CELL| Vector c [angstrom]:       0.000     0.000    30.000   |c| =    30.000000
 CELL| Angle (b,c), alpha [degree]:                                    90.000000
 CELL| Angle (a,c), beta  [degree]:                                    90.000000
 CELL| Angle (a,b), gamma [degree]:                                    90.000000
 CELL| Numerically orthorhombic:                                             YES
 CELL| Periodicity                                                          NONE

 CELL_REF| Volume [angstrom^3]:                                     27000.000000
 CELL_REF| Vector a [angstrom    30.000     0.000     0.000   |a| =    30.000000
 CELL_REF| Vector b [angstrom     0.000    30.000     0.000   |b| =    30.000000
 CELL_REF| Vector c [angstrom     0.000     0.000    30.000   |c| =    30.000000
 CELL_REF| Angle (b,c), alpha [degree]:                                90.000000
 CELL_REF| Angle (a,c), beta  [degree]:                                90.000000
 CELL_REF| Angle (a,b), gamma [degree]:                                90.000000
 CELL_REF| Numerically orthorhombic:                                         YES
 CELL_REF| Periodicity                                                      NONE

 *******************************************************************************
 *******************************************************************************
 **                                                                           **
 **     #####                         ##              ##                      **
 **    ##   ##            ##          ##              ##                      **
 **   ##     ##                       ##            ######                    **
 **   ##     ##  ##   ##  ##   #####  ##  ##   ####   ##    #####    #####    **
 **   ##     ##  ##   ##  ##  ##      ## ##   ##      ##   ##   ##  ##   ##   **
 **   ##  ## ##  ##   ##  ##  ##      ####     ###    ##   ######   ######    **
 **    ##  ###   ##   ##  ##  ##      ## ##      ##   ##   ##       ##        **
 **     #######   #####   ##   #####  ##  ##  ####    ##    #####   ##        **
 **           ##                                                    ##        **
 **                                                                           **
 **                                                ... make the atoms dance   **
 **                                                                           **
 **            Copyright (C) by CP2K developers group (2000-2025)             **
 **                      J. Chem. Phys. 152, 194103 (2020)                    **
 **                                                                           **
 *******************************************************************************

 DFT| Spin restricted Kohn-Sham (RKS) calculation                            RKS
 DFT| Multiplicity                                                             1
 DFT| Number of spin states                                                    1
 DFT| Charge                                                                   0
 DFT| Self-interaction correction (SIC)                                       NO
 DFT| Cutoffs: density                                              1.000000E-10
 DFT|          gradient                                             1.000000E-10
 DFT|          tau                                                  1.000000E-10
 DFT|          cutoff_smoothing_range                               0.000000E+00
 DFT| XC density smoothing                                                  NONE
 DFT| XC derivatives                                                          PW

 FUNCTIONAL| PBE:
 FUNCTIONAL| J.P.Perdew, K.Burke, M.Ernzerhof, Phys. Rev. Letter, vol. 77, n 18,
 FUNCTIONAL|  pp. 3865-3868, (1996)sx=0.750sc=1.000{spin unpolarized}           


 QS| Method:                                                                GAPW
 QS| Density plane wave grid type                        NON-SPHERICAL FULLSPACE
 QS| Number of grid levels:                                                    4
 QS| Density cutoff [a.u.]:                                                250.0
 QS| Multi grid cutoff [a.u.]: 1) grid level                               250.0
 QS|                           2) grid level                                83.3
 QS|                           3) grid level                                27.8
 QS|                           4) grid level                                 9.3
 QS| Grid level progression factor:                                          3.0
 QS| Relative density cutoff [a.u.]:                                        50.0
 QS| Interaction thresholds: eps_pgf_orb:                                1.0E-12
 QS|                         eps_filter_matrix:                          0.0E+00
 QS|                         eps_core_charge:                            1.0E-14
 QS|                         eps_rho_gspace:                             1.0E-12
 QS|                         eps_rho_rspace:                             1.0E-12
 QS|                         eps_gvg_rspace:                             1.0E-06
 QS|                         eps_ppl:                                    1.0E-02
 QS|                         eps_ppnl:                                   1.0E-08
 QS| GAPW|      One center basis from orbital basis primitives
 QS| GAPW|                   eps_fit:                                    1.0E-04
 QS| GAPW|                   eps_iso:                                    1.0E-12
 QS| GAPW|                   eps_svd:                                    1.0E-08
 QS| GAPW|                   eps_cpc:                                    1.0E-12
 QS| GAPW|   atom-r-grid: quadrature:                                     GC_LOG
 QS| GAPW|      atom-s-grid:  max l :                                          6
 QS| GAPW|      max_l_rho0 :                                                   2


 ATOMIC KIND INFORMATION

  1. Atomic kind: B                                     Number of atoms:       1

     Orbital Basis Set                                        aug-DZVP-MOLOPT-ae

       Number of orbital shell sets:                                           2
       Number of orbital shells:                                              10
       Number of primitive Cartesian functions:                               12
       Number of Cartesian basis functions:                                   35
       Number of spherical basis functions:                                   30
       Norm type:                                                              2

       Normalised Cartesian orbitals:

                        Set   Shell   Orbital            Exponent    Coefficient

                          1       1    2s                0.082134       0.085473
                                                         0.140000       0.049675
                                                         0.279625      -0.030750
                                                         0.881274       0.022030
                                                         4.510873       0.000000

                          1       2    3px               0.082134      -0.004879
                                                         0.140000       0.000000
                                                         0.279625      -0.151722
                                                         0.881274      -0.583957
                                                         4.510873      -1.036243
                          1       2    3py               0.082134      -0.004879
                                                         0.140000       0.000000
                                                         0.279625      -0.151722
                                                         0.881274      -0.583957
                                                         4.510873      -1.036243
                          1       2    3pz               0.082134      -0.004879
                                                         0.140000       0.000000
                                                         0.279625      -0.151722
                                                         0.881274      -0.583957
                                                         4.510873      -1.036243

                          1       3    4px               0.082134       0.052233
                                                         0.140000       0.000000
                                                         0.279625       0.094300
                                                         0.881274      -0.581323
                                                         4.510873      -0.510604
                          1       3    4py               0.082134       0.052233
                                                         0.140000       0.000000
                                                         0.279625       0.094300
                                                         0.881274      -0.581323
                                                         4.510873      -0.510604
                          1       3    4pz               0.082134       0.052233
                                                         0.140000       0.000000
                                                         0.279625       0.094300
                                                         0.881274      -0.581323
                                                         4.510873      -0.510604

                          1       4    5px               0.082134       0.024659
                                                         0.140000       0.076570
                                                         0.279625      -0.053289
                                                         0.881274       0.410720
                                                         4.510873       0.000000
                          1       4    5py               0.082134       0.024659
                                                         0.140000       0.076570
                                                         0.279625      -0.053289
                                                         0.881274       0.410720
                                                         4.510873       0.000000
                          1       4    5pz               0.082134       0.024659
                                                         0.140000       0.076570
                                                         0.279625      -0.053289
                                                         0.881274       0.410720
                                                         4.510873       0.000000

                          1       5    4dx2              0.082134       0.000404
                                                         0.140000       0.000000
                                                         0.279625       0.111576
                                                         0.881274       0.641739
                                                         4.510873      -0.272354
                          1       5    4dxy              0.082134       0.000700
                                                         0.140000       0.000000
                                                         0.279625       0.193255
                                                         0.881274       1.111524
                                                         4.510873      -0.471731
                          1       5    4dxz              0.082134       0.000700
                                                         0.140000       0.000000
                                                         0.279625       0.193255
                                                         0.881274       1.111524
                                                         4.510873      -0.471731
                          1       5    4dy2              0.082134       0.000404
                                                         0.140000       0.000000
                                                         0.279625       0.111576
                                                         0.881274       0.641739
                                                         4.510873      -0.272354
                          1       5    4dyz              0.082134       0.000700
                                                         0.140000       0.000000
                                                         0.279625       0.193255
                                                         0.881274       1.111524
                                                         4.510873      -0.471731
                          1       5    4dz2              0.082134       0.000404
                                                         0.140000       0.000000
                                                         0.279625       0.111576
                                                         0.881274       0.641739
                                                         4.510873      -0.272354

                          1       6    5dx2              0.082134       0.036596
                                                         0.140000      -0.054919
                                                         0.279625      -0.008802
                                                         0.881274      -0.232953
                                                         4.510873       0.000000
                          1       6    5dxy              0.082134       0.063387
                                                         0.140000      -0.095122
                                                         0.279625      -0.015246
                                                         0.881274      -0.403486
                                                         4.510873       0.000000
                          1       6    5dxz              0.082134       0.063387
                                                         0.140000      -0.095122
                                                         0.279625      -0.015246
                                                         0.881274      -0.403486
                                                         4.510873       0.000000
                          1       6    5dy2              0.082134       0.036596
                                                         0.140000      -0.054919
                                                         0.279625      -0.008802
                                                         0.881274      -0.232953
                                                         4.510873       0.000000
                          1       6    5dyz              0.082134       0.063387
                                                         0.140000      -0.095122
                                                         0.279625      -0.015246
                                                         0.881274      -0.403486
                                                         4.510873       0.000000
                          1       6    5dz2              0.082134       0.036596
                                                         0.140000      -0.054919
                                                         0.279625      -0.008802
                                                         0.881274      -0.232953
                                                         4.510873       0.000000

                          1       7    5fx3              0.082134      -0.000468
                                                         0.140000       0.012301
                                                         0.279625       0.033988
                                                         0.881274       0.068820
                                                         4.510873       0.000000
                          1       7    5fx2y             0.082134      -0.001048
                                                         0.140000       0.027506
                                                         0.279625       0.075998
                                                         0.881274       0.153886
                                                         4.510873       0.000000
                          1       7    5fx2z             0.082134      -0.001048
                                                         0.140000       0.027506
                                                         0.279625       0.075998
                                                         0.881274       0.153886
                                                         4.510873       0.000000
                          1       7    5fxy2             0.082134      -0.001048
                                                         0.140000       0.027506
                                                         0.279625       0.075998
                                                         0.881274       0.153886
                                                         4.510873       0.000000
                          1       7    5fxyz             0.082134      -0.001814
                                                         0.140000       0.047643
                                                         0.279625       0.131633
                                                         0.881274       0.266539
                                                         4.510873       0.000000
                          1       7    5fxz2             0.082134      -0.001048
                                                         0.140000       0.027506
                                                         0.279625       0.075998
                                                         0.881274       0.153886
                                                         4.510873       0.000000
                          1       7    5fy3              0.082134      -0.000468
                                                         0.140000       0.012301
                                                         0.279625       0.033988
                                                         0.881274       0.068820
                                                         4.510873       0.000000
                          1       7    5fy2z             0.082134      -0.001048
                                                         0.140000       0.027506
                                                         0.279625       0.075998
                                                         0.881274       0.153886
                                                         4.510873       0.000000
                          1       7    5fyz2             0.082134      -0.001048
                                                         0.140000       0.027506
                                                         0.279625       0.075998
                                                         0.881274       0.153886
                                                         4.510873       0.000000
                          1       7    5fz3              0.082134      -0.000468
                                                         0.140000       0.012301
                                                         0.279625       0.033988
                                                         0.881274       0.068820
                                                         4.510873       0.000000

                          2       1    1s              839.324562      -0.573042
                                                       126.174643      -1.097170
                                                        28.339532      -1.625259
                                                         7.329111      -1.470436
                                                         2.208031      -0.468381
                                                         0.410209      -0.026981
                                                         0.151694      -0.023850

                          2       2    2s              839.324562       0.050684
                                                       126.174643      -0.115654
                                                        28.339532      -0.168560
                                                         7.329111      -0.289389
                                                         2.208031      -0.246292
                                                         0.410209       0.238157
                                                         0.151694       0.084355

                          2       3    3s              839.324562      -2.590681
                                                       126.174643       0.127370
                                                        28.339532      -1.260776
                                                         7.329111      -0.567183
                                                         2.208031      -0.073452
                                                         0.410209      -0.458063
                                                         0.151694       0.280188

     RI Auxiliary Basis Set             RI_aug-DZVP-MOLOPT-ae_N_RI_035_s_p_d_f_g

       Number of orbital shell sets:                                          13
       Number of orbital shells:                                              13
       Number of primitive Cartesian functions:                               13
       Number of Cartesian basis functions:                                   40
       Number of spherical basis functions:                                   35
       Norm type:                                                              2

       Normalised Cartesian orbitals:

                        Set   Shell   Orbital            Exponent    Coefficient

                          1       1    1s                0.155297       0.176312

                          2       1   11dx2              0.191101       0.090912
                          2       1   11dxy              0.191101       0.157464
                          2       1   11dxz              0.191101       0.157464
                          2       1   11dy2              0.191101       0.090912
                          2       1   11dyz              0.191101       0.157464
                          2       1   11dz2              0.191101       0.090912

                          3       1    7px               0.280108       0.290467
                          3       1    7py               0.280108       0.290467
                          3       1    7pz               0.280108       0.290467

                          4       1    2s                0.348203       0.323061

                          5       1   13fx3              0.401700       0.189118
                          5       1   13fx2y             0.401700       0.422882
                          5       1   13fx2z             0.401700       0.422882
                          5       1   13fxy2             0.401700       0.422882
                          5       1   13fxyz             0.401700       0.732452
                          5       1   13fxz2             0.401700       0.422882
                          5       1   13fy3              0.401700       0.189118
                          5       1   13fy2z             0.401700       0.422882
                          5       1   13fyz2             0.401700       0.422882
                          5       1   13fz3              0.401700       0.189118

                          6       1    8px               0.444336       0.517106
                          6       1    8py               0.444336       0.517106
                          6       1    8pz               0.444336       0.517106

                          7       1   12dx2              0.761687       1.022158
                          7       1   12dxy              0.761687       1.770430
                          7       1   12dxz              0.761687       1.770430
                          7       1   12dy2              0.761687       1.022158
                          7       1   12dyz              0.761687       1.770430
                          7       1   12dz2              0.761687       1.022158

                          8       1    3s                1.114597       0.773123

                          9       1    9px               1.400889       2.172425
                          9       1    9py               1.400889       2.172425
                          9       1    9pz               1.400889       2.172425

                         10       1    4s                3.952925       1.998016

                         11       1   10px               6.658811      15.247055
                         11       1   10py               6.658811      15.247055
                         11       1   10pz               6.658811      15.247055

                         12       1    5s               13.787097       5.099349

                         13       1    6s               47.491635      12.893563

       Atomic covalent radius [Angstrom]:                                  0.820

       Atomic van der Waals radius [Angstrom]:                             1.920

     The atoms of this atomic kind are PAW atoms (GAPW):
       Hard Gaussian function radius:                                      1.512
       Rho0 radius:                                                        1.512
       Maximum GTO radius used for PAW projector construction:            24.566

     GAPW Soft Basis Set                                 aug-DZVP-MOLOPT-ae_soft

       Number of orbital shell sets:                                           2
       Number of orbital shells:                                              10
       Number of primitive Cartesian functions:                                8
       Number of Cartesian basis functions:                                   35
       Number of spherical basis functions:                                   30
       Norm type:                                                              2

       Normalised Cartesian orbitals:

                        Set   Shell   Orbital            Exponent    Coefficient

                          1       1    2s                0.082134       0.085473
                                                         0.140000       0.049675
                                                         0.279625      -0.030750
                                                         0.881274       0.022030
                                                         4.510873       0.000000

                          1       2    3px               0.082134      -0.004879
                                                         0.140000       0.000000
                                                         0.279625      -0.151722
                                                         0.881274      -0.583957
                                                         4.510873       0.000000
                          1       2    3py               0.082134      -0.004879
                                                         0.140000       0.000000
                                                         0.279625      -0.151722
                                                         0.881274      -0.583957
                                                         4.510873       0.000000
                          1       2    3pz               0.082134      -0.004879
                                                         0.140000       0.000000
                                                         0.279625      -0.151722
                                                         0.881274      -0.583957
                                                         4.510873       0.000000

                          1       3    4px               0.082134       0.052233
                                                         0.140000       0.000000
                                                         0.279625       0.094300
                                                         0.881274      -0.581323
                                                         4.510873       0.000000
                          1       3    4py               0.082134       0.052233
                                                         0.140000       0.000000
                                                         0.279625       0.094300
                                                         0.881274      -0.581323
                                                         4.510873       0.000000
                          1       3    4pz               0.082134       0.052233
                                                         0.140000       0.000000
                                                         0.279625       0.094300
                                                         0.881274      -0.581323
                                                         4.510873       0.000000

                          1       4    5px               0.082134       0.024659
                                                         0.140000       0.076570
                                                         0.279625      -0.053289
                                                         0.881274       0.410720
                                                         4.510873       0.000000
                          1       4    5py               0.082134       0.024659
                                                         0.140000       0.076570
                                                         0.279625      -0.053289
                                                         0.881274       0.410720
                                                         4.510873       0.000000
                          1       4    5pz               0.082134       0.024659
                                                         0.140000       0.076570
                                                         0.279625      -0.053289
                                                         0.881274       0.410720
                                                         4.510873       0.000000

                          1       5    4dx2              0.082134       0.000404
                                                         0.140000       0.000000
                                                         0.279625       0.111576
                                                         0.881274       0.641739
                                                         4.510873       0.000000
                          1       5    4dxy              0.082134       0.000700
                                                         0.140000       0.000000
                                                         0.279625       0.193255
                                                         0.881274       1.111524
                                                         4.510873       0.000000
                          1       5    4dxz              0.082134       0.000700
                                                         0.140000       0.000000
                                                         0.279625       0.193255
                                                         0.881274       1.111524
                                                         4.510873       0.000000
                          1       5    4dy2              0.082134       0.000404
                                                         0.140000       0.000000
                                                         0.279625       0.111576
                                                         0.881274       0.641739
                                                         4.510873       0.000000
                          1       5    4dyz              0.082134       0.000700
                                                         0.140000       0.000000
                                                         0.279625       0.193255
                                                         0.881274       1.111524
                                                         4.510873       0.000000
                          1       5    4dz2              0.082134       0.000404
                                                         0.140000       0.000000
                                                         0.279625       0.111576
                                                         0.881274       0.641739
                                                         4.510873       0.000000

                          1       6    5dx2              0.082134       0.036596
                                                         0.140000      -0.054919
                                                         0.279625      -0.008802
                                                         0.881274      -0.232953
                                                         4.510873       0.000000
                          1       6    5dxy              0.082134       0.063387
                                                         0.140000      -0.095122
                                                         0.279625      -0.015246
                                                         0.881274      -0.403486
                                                         4.510873       0.000000
                          1       6    5dxz              0.082134       0.063387
                                                         0.140000      -0.095122
                                                         0.279625      -0.015246
                                                         0.881274      -0.403486
                                                         4.510873       0.000000
                          1       6    5dy2              0.082134       0.036596
                                                         0.140000      -0.054919
                                                         0.279625      -0.008802
                                                         0.881274      -0.232953
                                                         4.510873       0.000000
                          1       6    5dyz              0.082134       0.063387
                                                         0.140000      -0.095122
                                                         0.279625      -0.015246
                                                         0.881274      -0.403486
                                                         4.510873       0.000000
                          1       6    5dz2              0.082134       0.036596
                                                         0.140000      -0.054919
                                                         0.279625      -0.008802
                                                         0.881274      -0.232953
                                                         4.510873       0.000000

                          1       7    5fx3              0.082134      -0.000468
                                                         0.140000       0.012301
                                                         0.279625       0.033988
                                                         0.881274       0.068820
                                                         4.510873       0.000000
                          1       7    5fx2y             0.082134      -0.001048
                                                         0.140000       0.027506
                                                         0.279625       0.075998
                                                         0.881274       0.153886
                                                         4.510873       0.000000
                          1       7    5fx2z             0.082134      -0.001048
                                                         0.140000       0.027506
                                                         0.279625       0.075998
                                                         0.881274       0.153886
                                                         4.510873       0.000000
                          1       7    5fxy2             0.082134      -0.001048
                                                         0.140000       0.027506
                                                         0.279625       0.075998
                                                         0.881274       0.153886
                                                         4.510873       0.000000
                          1       7    5fxyz             0.082134      -0.001814
                                                         0.140000       0.047643
                                                         0.279625       0.131633
                                                         0.881274       0.266539
                                                         4.510873       0.000000
                          1       7    5fxz2             0.082134      -0.001048
                                                         0.140000       0.027506
                                                         0.279625       0.075998
                                                         0.881274       0.153886
                                                         4.510873       0.000000
                          1       7    5fy3              0.082134      -0.000468
                                                         0.140000       0.012301
                                                         0.279625       0.033988
                                                         0.881274       0.068820
                                                         4.510873       0.000000
                          1       7    5fy2z             0.082134      -0.001048
                                                         0.140000       0.027506
                                                         0.279625       0.075998
                                                         0.881274       0.153886
                                                         4.510873       0.000000
                          1       7    5fyz2             0.082134      -0.001048
                                                         0.140000       0.027506
                                                         0.279625       0.075998
                                                         0.881274       0.153886
                                                         4.510873       0.000000
                          1       7    5fz3              0.082134      -0.000468
                                                         0.140000       0.012301
                                                         0.279625       0.033988
                                                         0.881274       0.068820
                                                         4.510873       0.000000

                          2       1    1s                2.208031      -0.468381
                                                         0.410209      -0.026981
                                                         0.151694      -0.023850

                          2       2    2s                2.208031      -0.246292
                                                         0.410209       0.238157
                                                         0.151694       0.084355

                          2       3    3s                2.208031      -0.073452
                                                         0.410209      -0.458063
                                                         0.151694       0.280188

     AE Potential information for                                            ALL

       Description:                                       All-electron potential
                                          Krack, Parrinello, PCCP 2, 2105 (2000)

       Gaussian exponent of the core charge distribution:               2.655410
       Electronic configuration (s p d ...):                           4   1   0

  2. Atomic kind: N                                     Number of atoms:       1

     Orbital Basis Set                                        aug-DZVP-MOLOPT-ae

       Number of orbital shell sets:                                           2
       Number of orbital shells:                                              10
       Number of primitive Cartesian functions:                               12
       Number of Cartesian basis functions:                                   35
       Number of spherical basis functions:                                   30
       Norm type:                                                              2

       Normalised Cartesian orbitals:

                        Set   Shell   Orbital            Exponent    Coefficient

                          1       1    2s                0.060000      -0.096639
                                                         0.166384       0.037538
                                                         0.634073      -0.055669
                                                         2.325354       0.000000
                                                        12.268174       0.000000

                          1       2    3px               0.060000       0.000000
                                                         0.166384      -0.031930
                                                         0.634073      -0.492962
                                                         2.325354      -1.380142
                                                        12.268174      -2.349358
                          1       2    3py               0.060000       0.000000
                                                         0.166384      -0.031930
                                                         0.634073      -0.492962
                                                         2.325354      -1.380142
                                                        12.268174      -2.349358
                          1       2    3pz               0.060000       0.000000
                                                         0.166384      -0.031930
                                                         0.634073      -0.492962
                                                         2.325354      -1.380142
                                                        12.268174      -2.349358

                          1       3    4px               0.060000       0.000000
                                                         0.166384       0.169694
                                                         0.634073      -0.220766
                                                         2.325354      -0.809234
                                                        12.268174      -0.998521
                          1       3    4py               0.060000       0.000000
                                                         0.166384       0.169694
                                                         0.634073      -0.220766
                                                         2.325354      -0.809234
                                                        12.268174      -0.998521
                          1       3    4pz               0.060000       0.000000
                                                         0.166384       0.169694
                                                         0.634073      -0.220766
                                                         2.325354      -0.809234
                                                        12.268174      -0.998521

                          1       4    5px               0.060000       0.028594
                                                         0.166384       0.063224
                                                         0.634073      -0.046183
                                                         2.325354       0.000000
                                                        12.268174       0.000000
                          1       4    5py               0.060000       0.028594
                                                         0.166384       0.063224
                                                         0.634073      -0.046183
                                                         2.325354       0.000000
                                                        12.268174       0.000000
                          1       4    5pz               0.060000       0.028594
                                                         0.166384       0.063224
                                                         0.634073      -0.046183
                                                         2.325354       0.000000
                                                        12.268174       0.000000

                          1       5    4dx2              0.060000       0.000000
                                                         0.166384       0.019402
                                                         0.634073       0.555487
                                                         2.325354       1.255926
                                                        12.268174      -0.426175
                          1       5    4dxy              0.060000       0.000000
                                                         0.166384       0.033606
                                                         0.634073       0.962132
                                                         2.325354       2.175327
                                                        12.268174      -0.738157
                          1       5    4dxz              0.060000       0.000000
                                                         0.166384       0.033606
                                                         0.634073       0.962132
                                                         2.325354       2.175327
                                                        12.268174      -0.738157
                          1       5    4dy2              0.060000       0.000000
                                                         0.166384       0.019402
                                                         0.634073       0.555487
                                                         2.325354       1.255926
                                                        12.268174      -0.426175
                          1       5    4dyz              0.060000       0.000000
                                                         0.166384       0.033606
                                                         0.634073       0.962132
                                                         2.325354       2.175327
                                                        12.268174      -0.738157
                          1       5    4dz2              0.060000       0.000000
                                                         0.166384       0.019402
                                                         0.634073       0.555487
                                                         2.325354       1.255926
                                                        12.268174      -0.426175

                          1       6    5dx2              0.060000      -0.008089
                                                         0.166384      -0.027907
                                                         0.634073      -0.057221
                                                         2.325354       0.000000
                                                        12.268174       0.000000
                          1       6    5dxy              0.060000      -0.014011
                                                         0.166384      -0.048336
                                                         0.634073      -0.099109
                                                         2.325354       0.000000
                                                        12.268174       0.000000
                          1       6    5dxz              0.060000      -0.014011
                                                         0.166384      -0.048336
                                                         0.634073      -0.099109
                                                         2.325354       0.000000
                                                        12.268174       0.000000
                          1       6    5dy2              0.060000      -0.008089
                                                         0.166384      -0.027907
                                                         0.634073      -0.057221
                                                         2.325354       0.000000
                                                        12.268174       0.000000
                          1       6    5dyz              0.060000      -0.014011
                                                         0.166384      -0.048336
                                                         0.634073      -0.099109
                                                         2.325354       0.000000
                                                        12.268174       0.000000
                          1       6    5dz2              0.060000      -0.008089
                                                         0.166384      -0.027907
                                                         0.634073      -0.057221
                                                         2.325354       0.000000
                                                        12.268174       0.000000

                          1       7    5fx3              0.060000       0.000067
                                                         0.166384       0.012645
                                                         0.634073       0.328269
                                                         2.325354       1.687172
                                                        12.268174       0.000000
                          1       7    5fx2y             0.060000       0.000150
                                                         0.166384       0.028275
                                                         0.634073       0.734031
                                                         2.325354       3.772631
                                                        12.268174       0.000000
                          1       7    5fx2z             0.060000       0.000150
                                                         0.166384       0.028275
                                                         0.634073       0.734031
                                                         2.325354       3.772631
                                                        12.268174       0.000000
                          1       7    5fxy2             0.060000       0.000150
                                                         0.166384       0.028275
                                                         0.634073       0.734031
                                                         2.325354       3.772631
                                                        12.268174       0.000000
                          1       7    5fxyz             0.060000       0.000260
                                                         0.166384       0.048973
                                                         0.634073       1.271379
                                                         2.325354       6.534389
                                                        12.268174       0.000000
                          1       7    5fxz2             0.060000       0.000150
                                                         0.166384       0.028275
                                                         0.634073       0.734031
                                                         2.325354       3.772631
                                                        12.268174       0.000000
                          1       7    5fy3              0.060000       0.000067
                                                         0.166384       0.012645
                                                         0.634073       0.328269
                                                         2.325354       1.687172
                                                        12.268174       0.000000
                          1       7    5fy2z             0.060000       0.000150
                                                         0.166384       0.028275
                                                         0.634073       0.734031
                                                         2.325354       3.772631
                                                        12.268174       0.000000
                          1       7    5fyz2             0.060000       0.000150
                                                         0.166384       0.028275
                                                         0.634073       0.734031
                                                         2.325354       3.772631
                                                        12.268174       0.000000
                          1       7    5fz3              0.060000       0.000067
                                                         0.166384       0.012645
                                                         0.634073       0.328269
                                                         2.325354       1.687172
                                                        12.268174       0.000000

                          2       1    1s                0.191012      -0.002582
                                                         0.666629       0.012902
                                                         4.403487      -0.858326
                                                        14.651380      -2.749170
                                                        57.692026      -2.958222
                                                       257.997554      -1.897300
                                                      1713.054433      -1.166486

                          2       2    2s                0.191012       0.079194
                                                         0.666629       0.351708
                                                         4.403487       0.009155
                                                        14.651380       0.000424
                                                        57.692026       0.772862
                                                       257.997554      -0.458166
                                                      1713.054433       0.520658

                          2       3    3s                0.191012       0.300064
                                                         0.666629      -0.436823
                                                         4.403487      -0.072962
                                                        14.651380      -0.095292
                                                        57.692026      -1.262420
                                                       257.997554       0.741400
                                                      1713.054433      -0.270364

     RI Auxiliary Basis Set             RI_aug-DZVP-MOLOPT-ae_N_RI_039_s_p_d_f_g

       Number of orbital shell sets:                                          11
       Number of orbital shells:                                              11
       Number of primitive Cartesian functions:                               11
       Number of Cartesian basis functions:                                   50
       Number of spherical basis functions:                                   39
       Norm type:                                                              2

       Normalised Cartesian orbitals:

                        Set   Shell   Orbital            Exponent    Coefficient

                          1       1    1s                0.362292       0.332816

                          2       1    5px               0.627072       0.795403
                          2       1    5py               0.627072       0.795403
                          2       1    5pz               0.627072       0.795403

                          3       1    8dx2              0.761042       1.020644
                          3       1    8dxy              0.761042       1.767807
                          3       1    8dxz              0.761042       1.767807
                          3       1    8dy2              0.761042       1.020644
                          3       1    8dyz              0.761042       1.767807
                          3       1    8dz2              0.761042       1.020644

                          4       1   10fx3              1.083799       1.764368
                          4       1   10fx2y             1.083799       3.945247
                          4       1   10fx2z             1.083799       3.945247
                          4       1   10fxy2             1.083799       3.945247
                          4       1   10fxyz             1.083799       6.833368
                          4       1   10fxz2             1.083799       3.945247
                          4       1   10fy3              1.083799       1.764368
                          4       1   10fy2z             1.083799       3.945247
                          4       1   10fyz2             1.083799       3.945247
                          4       1   10fz3              1.083799       1.764368

                          5       1    6px               1.259239       1.901408
                          5       1    6py               1.259239       1.901408
                          5       1    6pz               1.259239       1.901408

                          6       1   11gx4              1.291057       2.246649
                          6       1   11gx3y             1.291057       5.944074
                          6       1   11gx3z             1.291057       5.944074
                          6       1   11gx2y2            1.291057       7.673766
                          6       1   11gx2yz            1.291057      13.291353
                          6       1   11gx2z2            1.291057       7.673766
                          6       1   11gxy3             1.291057       5.944074
                          6       1   11gxy2z            1.291057      13.291353
                          6       1   11gxyz2            1.291057      13.291353
                          6       1   11gxz3             1.291057       5.944074
                          6       1   11gy4              1.291057       2.246649
                          6       1   11gy3z             1.291057       5.944074
                          6       1   11gy2z2            1.291057       7.673766
                          6       1   11gyz3             1.291057       5.944074
                          6       1   11gz4              1.291057       2.246649

                          7       1    2s                1.635496       1.030736

                          8       1    9dx2              3.465946      14.490975
                          8       1    9dxy              3.465946      25.099104
                          8       1    9dxz              3.465946      25.099104
                          8       1    9dy2              3.465946      14.490975
                          8       1    9dyz              3.465946      25.099104
                          8       1    9dz2              3.465946      14.490975

                          9       1    3s               12.763940       4.812809

                         10       1    7px              13.735323      37.691089
                         10       1    7py              13.735323      37.691089
                         10       1    7pz              13.735323      37.691089

                         11       1    4s              110.054394      24.216737

       Atomic covalent radius [Angstrom]:                                  0.750

       Atomic van der Waals radius [Angstrom]:                             1.550

     The atoms of this atomic kind are PAW atoms (GAPW):
       Hard Gaussian function radius:                                      1.512
       Rho0 radius:                                                        1.512
       Maximum GTO radius used for PAW projector construction:            24.566

     GAPW Soft Basis Set                                 aug-DZVP-MOLOPT-ae_soft

       Number of orbital shell sets:                                           2
       Number of orbital shells:                                              10
       Number of primitive Cartesian functions:                                6
       Number of Cartesian basis functions:                                   35
       Number of spherical basis functions:                                   30
       Norm type:                                                              2

       Normalised Cartesian orbitals:

                        Set   Shell   Orbital            Exponent    Coefficient

                          1       1    2s                0.060000      -0.096639
                                                         0.166384       0.037538
                                                         0.634073      -0.055669
                                                         2.325354       0.000000

                          1       2    3px               0.060000       0.000000
                                                         0.166384      -0.031930
                                                         0.634073      -0.492962
                                                         2.325354      -1.380142
                          1       2    3py               0.060000       0.000000
                                                         0.166384      -0.031930
                                                         0.634073      -0.492962
                                                         2.325354      -1.380142
                          1       2    3pz               0.060000       0.000000
                                                         0.166384      -0.031930
                                                         0.634073      -0.492962
                                                         2.325354      -1.380142

                          1       3    4px               0.060000       0.000000
                                                         0.166384       0.169694
                                                         0.634073      -0.220766
                                                         2.325354      -0.809234
                          1       3    4py               0.060000       0.000000
                                                         0.166384       0.169694
                                                         0.634073      -0.220766
                                                         2.325354      -0.809234
                          1       3    4pz               0.060000       0.000000
                                                         0.166384       0.169694
                                                         0.634073      -0.220766
                                                         2.325354      -0.809234

                          1       4    5px               0.060000       0.028594
                                                         0.166384       0.063224
                                                         0.634073      -0.046183
                                                         2.325354       0.000000
                          1       4    5py               0.060000       0.028594
                                                         0.166384       0.063224
                                                         0.634073      -0.046183
                                                         2.325354       0.000000
                          1       4    5pz               0.060000       0.028594
                                                         0.166384       0.063224
                                                         0.634073      -0.046183
                                                         2.325354       0.000000

                          1       5    4dx2              0.060000       0.000000
                                                         0.166384       0.019402
                                                         0.634073       0.555487
                                                         2.325354       1.255926
                          1       5    4dxy              0.060000       0.000000
                                                         0.166384       0.033606
                                                         0.634073       0.962132
                                                         2.325354       2.175327
                          1       5    4dxz              0.060000       0.000000
                                                         0.166384       0.033606
                                                         0.634073       0.962132
                                                         2.325354       2.175327
                          1       5    4dy2              0.060000       0.000000
                                                         0.166384       0.019402
                                                         0.634073       0.555487
                                                         2.325354       1.255926
                          1       5    4dyz              0.060000       0.000000
                                                         0.166384       0.033606
                                                         0.634073       0.962132
                                                         2.325354       2.175327
                          1       5    4dz2              0.060000       0.000000
                                                         0.166384       0.019402
                                                         0.634073       0.555487
                                                         2.325354       1.255926

                          1       6    5dx2              0.060000      -0.008089
                                                         0.166384      -0.027907
                                                         0.634073      -0.057221
                                                         2.325354       0.000000
                          1       6    5dxy              0.060000      -0.014011
                                                         0.166384      -0.048336
                                                         0.634073      -0.099109
                                                         2.325354       0.000000
                          1       6    5dxz              0.060000      -0.014011
                                                         0.166384      -0.048336
                                                         0.634073      -0.099109
                                                         2.325354       0.000000
                          1       6    5dy2              0.060000      -0.008089
                                                         0.166384      -0.027907
                                                         0.634073      -0.057221
                                                         2.325354       0.000000
                          1       6    5dyz              0.060000      -0.014011
                                                         0.166384      -0.048336
                                                         0.634073      -0.099109
                                                         2.325354       0.000000
                          1       6    5dz2              0.060000      -0.008089
                                                         0.166384      -0.027907
                                                         0.634073      -0.057221
                                                         2.325354       0.000000

                          1       7    5fx3              0.060000       0.000067
                                                         0.166384       0.012645
                                                         0.634073       0.328269
                                                         2.325354       1.687172
                          1       7    5fx2y             0.060000       0.000150
                                                         0.166384       0.028275
                                                         0.634073       0.734031
                                                         2.325354       3.772631
                          1       7    5fx2z             0.060000       0.000150
                                                         0.166384       0.028275
                                                         0.634073       0.734031
                                                         2.325354       3.772631
                          1       7    5fxy2             0.060000       0.000150
                                                         0.166384       0.028275
                                                         0.634073       0.734031
                                                         2.325354       3.772631
                          1       7    5fxyz             0.060000       0.000260
                                                         0.166384       0.048973
                                                         0.634073       1.271379
                                                         2.325354       6.534389
[...]
   418 Broy./Diag. 0.10E+00    5.4     0.02899008       -79.4934912599  2.37E-02
   419 Broy./Diag. 0.10E+00    5.4     0.09317853       -79.4722527070  2.12E-02
   420 Broy./Diag. 0.10E+00    5.4     0.28678056       -79.4827868519 -1.05E-02
   421 Broy./Diag. 0.10E+00    5.4     0.11865601       -78.9864939196  4.96E-01
   422 Broy./Diag. 0.10E+00    5.4     0.23690429       -79.0113170992 -2.48E-02
   423 Broy./Diag. 0.10E+00    5.4     0.09294157       -79.5596671925 -5.48E-01
   424 Broy./Diag. 0.10E+00    5.4     0.12945791       -79.6499530807 -9.03E-02
   425 Broy./Diag. 0.10E+00    5.6     0.08909243       -79.7947433366 -1.45E-01
   426 Broy./Diag. 0.10E+00    5.4     0.08763202       -79.7686364950  2.61E-02
   427 Broy./Diag. 0.10E+00    5.4     0.07491531       -79.7292157698  3.94E-02
   428 Broy./Diag. 0.10E+00    5.4     0.05328114       -79.6793263163  4.99E-02
   429 Broy./Diag. 0.10E+00    5.4     0.03686512       -79.6415687948  3.78E-02
   430 Broy./Diag. 0.10E+00    5.4     0.02982640       -79.5376950382  1.04E-01
   431 Broy./Diag. 0.10E+00    5.5     0.03107733       -79.5229337611  1.48E-02
   432 Broy./Diag. 0.10E+00    5.4     0.04750773       -79.5856405019 -6.27E-02
   433 Broy./Diag. 0.10E+00    5.6     0.08893951       -79.4981135700  8.75E-02
   434 Broy./Diag. 0.10E+00    5.5     0.58990951       -79.4245453571  7.36E-02
   435 Broy./Diag. 0.10E+00    5.4     0.16519785       -78.4380131033  9.87E-01
   436 Broy./Diag. 0.10E+00    5.4     0.24931521       -78.8028205961 -3.65E-01
   437 Broy./Diag. 0.10E+00    5.5     0.18714451       -79.3595401691 -5.57E-01
   438 Broy./Diag. 0.10E+00    5.5     0.15142948       -79.6275125069 -2.68E-01
   439 Broy./Diag. 0.10E+00    5.4     0.10308030       -79.8775523109 -2.50E-01
   440 Broy./Diag. 0.10E+00    5.4     0.08032450       -80.0099935562 -1.32E-01
   441 Broy./Diag. 0.10E+00    5.5     0.02855506       -79.8448129503  1.65E-01
   442 Broy./Diag. 0.10E+00    5.5     0.01271552       -79.8568846132 -1.21E-02
   443 Broy./Diag. 0.10E+00    5.5     0.10531783       -79.7652459251  9.16E-02
   444 Broy./Diag. 0.10E+00    5.4     0.07370746       -79.9814176636 -2.16E-01
   445 Broy./Diag. 0.10E+00    5.4     0.05939541       -80.0415545282 -6.01E-02
   446 Broy./Diag. 0.10E+00    5.4     0.07424846       -80.0400509337  1.50E-03
   447 Broy./Diag. 0.10E+00    5.5     0.10097667       -79.8875924314  1.52E-01
   448 Broy./Diag. 0.10E+00    5.4     0.27187010       -79.7191233877  1.68E-01
   449 Broy./Diag. 0.10E+00    5.5     0.06853499       -79.0529926015  6.66E-01
   450 Broy./Diag. 0.10E+00    5.4     0.10211355       -79.2247028408 -1.72E-01
   451 Broy./Diag. 0.10E+00    5.4     0.11702430       -79.5090431105 -2.84E-01
   452 Broy./Diag. 0.10E+00    5.4     0.08881259       -79.7767744079 -2.68E-01
   453 Broy./Diag. 0.10E+00    5.4     0.07261650       -79.8725490893 -9.58E-02
   454 Broy./Diag. 0.10E+00    5.5     0.08760345       -79.8572974867  1.53E-02
   455 Broy./Diag. 0.10E+00    5.4     0.06552241       -79.6724922915  1.85E-01
   456 Broy./Diag. 0.10E+00    5.4     0.14082813       -79.5158729039  1.57E-01
   457 Broy./Diag. 0.10E+00    5.4     0.15609060       -79.1853721061  3.31E-01
   458 Broy./Diag. 0.10E+00    5.4     0.12630761       -78.9031938921  2.82E-01
   459 Broy./Diag. 0.10E+00    5.4     0.08822501       -79.2808377833 -3.78E-01
   460 Broy./Diag. 0.10E+00    5.4     0.05268974       -79.4892511487 -2.08E-01
   461 Broy./Diag. 0.10E+00    5.4     0.05072128       -79.5355764187 -4.63E-02
   462 Broy./Diag. 0.10E+00    5.4     0.05333838       -79.5878053806 -5.22E-02
   463 Broy./Diag. 0.10E+00    5.4     0.03826503       -79.5868931746  9.12E-04
   464 Broy./Diag. 0.10E+00    5.4     0.04182331       -79.5399204439  4.70E-02
   465 Broy./Diag. 0.10E+00    5.4     0.05141628       -79.5127924672  2.71E-02
   466 Broy./Diag. 0.10E+00    5.4     0.05828168       -79.4560496550  5.67E-02
   467 Broy./Diag. 0.10E+00    5.4     0.06277277       -79.3954414154  6.06E-02
   468 Broy./Diag. 0.10E+00    5.4     0.04904151       -79.4156864149 -2.02E-02
   469 Broy./Diag. 0.10E+00    5.5     0.05346868       -79.4174727783 -1.79E-03
   470 Broy./Diag. 0.10E+00    5.4     0.11548149       -79.4111658723  6.31E-03
   471 Broy./Diag. 0.10E+00    5.4     0.19887608       -79.2344405870  1.77E-01
   472 Broy./Diag. 0.10E+00    5.5     0.18767152       -78.9628611377  2.72E-01
   473 Broy./Diag. 0.10E+00    5.5     0.13707561       -78.9042507290  5.86E-02
   474 Broy./Diag. 0.10E+00    5.4     0.07113730       -79.0764027302 -1.72E-01
   475 Broy./Diag. 0.10E+00    5.4     0.04150358       -78.9623607218  1.14E-01
   476 Broy./Diag. 0.10E+00    5.4     0.11711272       -78.8646838996  9.77E-02
   477 Broy./Diag. 0.10E+00    5.4     0.02847389       -79.1890395965 -3.24E-01
   478 Broy./Diag. 0.10E+00    5.4     0.09324628       -79.2349786036 -4.59E-02
   479 Broy./Diag. 0.10E+00    5.4     0.07101205       -79.5214951387 -2.87E-01
   480 Broy./Diag. 0.10E+00    5.4     0.06086082       -79.6364908430 -1.15E-01
   481 Broy./Diag. 0.10E+00    5.5     0.12978745       -79.8777258325 -2.41E-01
   482 Broy./Diag. 0.10E+00    5.5     0.07742103       -80.3654516995 -4.88E-01
   483 Broy./Diag. 0.10E+00    5.4     0.06691551       -80.5261934094 -1.61E-01
   484 Broy./Diag. 0.10E+00    5.4     0.08392941       -80.6387625818 -1.13E-01
   485 Broy./Diag. 0.10E+00    5.5     0.06786909       -80.8623743037 -2.24E-01
   486 Broy./Diag. 0.10E+00    5.4     0.11559027       -81.0434251636 -1.81E-01
   487 Broy./Diag. 0.10E+00    5.5     0.05673865       -81.3251360918 -2.82E-01
   488 Broy./Diag. 0.10E+00    5.4     0.32564814       -81.3213044156  3.83E-03
   489 Broy./Diag. 0.10E+00    5.4     0.31411259       -80.5920007116  7.29E-01
   490 Broy./Diag. 0.10E+00    5.4     0.18254130       -79.6280121361  9.64E-01
   491 Broy./Diag. 0.10E+00    5.4     0.35112905       -79.2618517752  3.66E-01
   492 Broy./Diag. 0.10E+00    5.5     0.18632529       -80.3303189947 -1.07E+00
   493 Broy./Diag. 0.10E+00    5.4     0.13465781       -80.7847006720 -4.54E-01
   494 Broy./Diag. 0.10E+00    5.4     0.04547094       -81.0054828091 -2.21E-01
   495 Broy./Diag. 0.10E+00    5.5     0.05935350       -81.0817872007 -7.63E-02
   496 Broy./Diag. 0.10E+00    5.4     0.01901487       -81.0548895446  2.69E-02
   497 Broy./Diag. 0.10E+00    5.6     0.02989679       -80.9971942754  5.77E-02
   498 Broy./Diag. 0.10E+00    5.5     0.02765852       -80.8995835731  9.76E-02
   499 Broy./Diag. 0.10E+00    5.4     0.15751420       -80.6894155496  2.10E-01
   500 Broy./Diag. 0.10E+00    5.5     0.10833365       -80.2578951264  4.32E-01

  Leaving inner SCF loop after reaching   500 steps.


  Electronic density on regular grids:         -8.3745083387        3.6254916613
  Core density on regular grids:               12.0000000000        0.0000000000
  Hard and soft densities (Lebedev):          -42.0855197588      -38.4277689429
  Total Rho_soft + Rho1_hard - Rho1_soft      -12.0322591547
  Total charge density (r-space):              -0.0322591547
  Total Rho_soft + Rho0_soft (g-space):        -0.0322591721

  Overlap energy of the core charge distribution:               0.00001993455823
  Self energy of the core charge distribution:                -64.05191455199152
  Core Hamiltonian energy:                                    -15.63878399099269
  Hartree energy:                                              16.95252590601941
  Exchange-correlation energy:                                 -2.73586322132330
  Hartree-Fock Exchange energy:                                -2.48593840016781

  GAPW| Exc from hard and soft atomic rho1:                    -5.32992469674635
  GAPW| local Eh = 1 center integrals:                         -6.96801610579807

  Total energy:                                               -80.25789512644211

 *******************************************************************************
 *   ___                                                                       *
 *  /   \                                                                      *
 * [ABORT]                                                                     *
 *  \___/     SCF run NOT converged. To continue the calculation regardless,   *
 *    |             please set the keyword IGNORE_CONVERGENCE_FAILURE.         *
 *  O/|                                                                        *
 * /| |                                                                        *
 * / \                                                            qs_scf.F:611 *
 *******************************************************************************


 ===== Routine Calling Stack ===== 

            3 scf_env_do_scf
            2 qs_energies
            1 CP2K

 *******************************************************************************
 *   ___                                                                       *
 *  /   \                                                                      *
 * [ABORT]                                                                     *
 *  \___/     SCF run NOT converged. To continue the calculation regardless,   *
 *    |             please set the keyword IGNORE_CONVERGENCE_FAILURE.         *
 *  O/|                                                                        *
 * /| |                                                                        *
 * / \                                                            qs_scf.F:611 *
 *******************************************************************************


 ===== Routine Calling Stack ===== 

            3 scf_env_do_scf
            2 qs_energies
            1 CP2K

 *******************************************************************************
 *   ___                                                                       *
 *  /   \                                                                      *
 * [ABORT]                                                                     *
 *  \___/     SCF run NOT converged. To continue the calculation regardless,   *
 *    |             please set the keyword IGNORE_CONVERGENCE_FAILURE.         *
 *  O/|                                                                        *
 * /| |                                                                        *
 * / \                                                            qs_scf.F:611 *
 *******************************************************************************


 ===== Routine Calling Stack ===== 

            3 scf_env_do_scf
            2 qs_energies
            1 CP2K

 *******************************************************************************
 *   ___                                                                       *
 *  /   \                                                                      *
 * [ABORT]                                                                     *
 *  \___/     SCF run NOT converged. To continue the calculation regardless,   *
 *    |             please set the keyword IGNORE_CONVERGENCE_FAILURE.         *
 *  O/|                                                                        *
 * /| |                                                                        *
 * / \                                                            qs_scf.F:611 *
 *******************************************************************************


 ===== Routine Calling Stack ===== 

            3 scf_env_do_scf
            2 qs_energies
            1 CP2K

 *******************************************************************************
 *   ___                                                                       *
 *  /   \                                                                      *
 * [ABORT]                                                                     *
 *  \___/     SCF run NOT converged. To continue the calculation regardless,   *
 *    |             please set the keyword IGNORE_CONVERGENCE_FAILURE.         *
 *  O/|                                                                        *
 * /| |                                                                        *
 * / \                                                            qs_scf.F:611 *
 *******************************************************************************


 ===== Routine Calling Stack ===== 

            3 scf_env_do_scf
            2 qs_energies
            1 CP2K

 *******************************************************************************
 *   ___                                                                       *
 *  /   \                                                                      *
 * [ABORT]                                                                     *
 *  \___/     SCF run NOT converged. To continue the calculation regardless,   *
 *    |             please set the keyword IGNORE_CONVERGENCE_FAILURE.         *
 *  O/|                                                                        *
 * /| |                                                                        *
 * / \                                                            qs_scf.F:611 *
 *******************************************************************************


 ===== Routine Calling Stack ===== 

            3 scf_env_do_scf
            2 qs_energies
            1 CP2K

 *******************************************************************************
 *   ___                                                                       *
 *  /   \                                                                      *
 * [ABORT]                                                                     *
 *  \___/     SCF run NOT converged. To continue the calculation regardless,   *
 *    |             please set the keyword IGNORE_CONVERGENCE_FAILURE.         *
 *  O/|                                                                        *
 * /| |                                                                        *
 * / \                                                            qs_scf.F:611 *
 *******************************************************************************


 ===== Routine Calling Stack ===== 

            3 scf_env_do_scf
            2 qs_energies
            1 CP2K

 *******************************************************************************
 *   ___                                                                       *
 *  /   \                                                                      *
 * [ABORT]                                                                     *
 *  \___/     SCF run NOT converged. To continue the calculation regardless,   *
 *    |             please set the keyword IGNORE_CONVERGENCE_FAILURE.         *
 *  O/|                                                                        *
 * /| |                                                                        *
 * / \                                                            qs_scf.F:611 *
 *******************************************************************************


 ===== Routine Calling Stack ===== 

            3 scf_env_do_scf
            2 qs_energies
            1 CP2K

 *******************************************************************************
 *   ___                                                                       *
 *  /   \                                                                      *
 * [ABORT]                                                                     *
 *  \___/     SCF run NOT converged. To continue the calculation regardless,   *
 *    |             please set the keyword IGNORE_CONVERGENCE_FAILURE.         *
 *  O/|                                                                        *
 * /| |                                                                        *
 * / \                                                            qs_scf.F:611 *
 *******************************************************************************


 ===== Routine Calling Stack ===== 

            3 scf_env_do_scf
            2 qs_energies
            1 CP2K

 *******************************************************************************
 *   ___                                                                       *
 *  /   \                                                                      *
 * [ABORT]                                                                     *
 *  \___/     SCF run NOT converged. To continue the calculation regardless,   *
 *    |             please set the keyword IGNORE_CONVERGENCE_FAILURE.         *
 *  O/|                                                                        *
 * /| |                                                                        *
 * / \                                                            qs_scf.F:611 *
 *******************************************************************************


 ===== Routine Calling Stack ===== 

            3 scf_env_do_scf
            2 qs_energies
            1 CP2K

 *******************************************************************************
 *   ___                                                                       *
 *  /   \                                                                      *
 * [ABORT]                                                                     *
 *  \___/     SCF run NOT converged. To continue the calculation regardless,   *
 *    |             please set the keyword IGNORE_CONVERGENCE_FAILURE.         *
 *  O/|                                                                        *
 * /| |                                                                        *
 * / \                                                            qs_scf.F:611 *
 *******************************************************************************


 ===== Routine Calling Stack ===== 

            3 scf_env_do_scf
            2 qs_energies
            1 CP2K

 *******************************************************************************
 *   ___                                                                       *
 *  /   \                                                                      *
 * [ABORT]                                                                     *
 *  \___/     SCF run NOT converged. To continue the calculation regardless,   *
 *    |             please set the keyword IGNORE_CONVERGENCE_FAILURE.         *
 *  O/|                                                                        *
 * /| |                                                                        *
 * / \                                                            qs_scf.F:611 *
 *******************************************************************************


 ===== Routine Calling Stack ===== 

            3 scf_env_do_scf
            2 qs_energies
            1 CP2K

 *******************************************************************************
 *   ___                                                                       *
 *  /   \                                                                      *
 * [ABORT]                                                                     *
 *  \___/     SCF run NOT converged. To continue the calculation regardless,   *
 *    |             please set the keyword IGNORE_CONVERGENCE_FAILURE.         *
 *  O/|                                                                        *
 * /| |                                                                        *
 * / \                                                            qs_scf.F:611 *
 *******************************************************************************


 ===== Routine Calling Stack ===== 

            3 scf_env_do_scf
            2 qs_energies
            1 CP2K
