 DBCSR| CPU Multiplication driver                                           BLAS (U)
 DBCSR| Multrec recursion limit                                              512 (U)
 DBCSR| Multiplication stack size                                           1000 (D)
 DBCSR| Maximum elements for images                                    UNLIMITED (U)
 DBCSR| Multiplicative factor virtual images                                   1 (U)
 DBCSR| Use multiplication densification                                       T (D)
 DBCSR| Multiplication size stacks                                             3 (U)
 DBCSR| Use memory pool for CPU allocation                                     F (U)
 DBCSR| Number of 3D layers                                               SINGLE (U)
 DBCSR| Use MPI memory allocation                                              F (U)
 DBCSR| Use RMA algorithm                                                      F (U)
 DBCSR| Use Communication thread                                               T (U)
 DBCSR| Communication thread load                                             75 (D)
 DBCSR| MPI: My process id                                                     0
 DBCSR| MPI: Number of processes                                              24
 DBCSR| OMP: Current number of threads                                         4
 DBCSR| OMP: Max number of threads                                             4
 DBCSR| Split modifier for TAS multiplication algorithm                  1.0E+00 (U)


  **** **** ******  **  PROGRAM STARTED AT               2025-03-16 14:32:12.342
 ***** ** ***  *** **   PROGRAM STARTED ON                          i04r05c05s06
 **    ****   ******    PROGRAM STARTED BY                               di38fab
 ***** **    ** ** **   PROGRAM PROCESS ID                               3541707
  **** **  *******  **  PROGRAM STARTED IN /hppfs/scratch/04/di38fab/05_MOL/W4-1
                                           1+ALK/bn3pi/TZVP/GW+BSE/1e-3

 CP2K| version string:                 CP2K version 2025.1 (Development Version)
 CP2K| source code revision number:                                  git:d2e611a
 CP2K| cp2kflags: omp libint fftw3 libxc parallel scalapack max_contr=4         
 CP2K| is freely available from                            https://www.cp2k.org/
 CP2K| Program compiled at                       Thu 06 Mar 2025 05:09:20 PM CET
 CP2K| Program compiled on                                               login02
 CP2K| Program compiled for                                        Supermuc-foss
 CP2K| Data directory path                  /hppfs/work/pn36zo/di38fab/cp2k/data
 CP2K| Input file name                                                    GW.inp

 GLOBAL| Force Environment number                                              1
 GLOBAL| Basis set file name            /hppfs/scratch/04/di38fab/04_TMD/BASIS_A
 GLOBAL| Potential file name            /hppfs/work/pn36zo/di38fab/cp2k/data/ALL
 GLOBAL| MM Potential file name                                     MM_POTENTIAL
 GLOBAL| Coordinate file name                                      __STD_INPUT__
 GLOBAL| Method name                                                        CP2K
 GLOBAL| Project name                                                       MoS2
 GLOBAL| Run type                                                         ENERGY
 GLOBAL| FFT library                                                       FFTW3
 GLOBAL| Diagonalization library                                       ScaLAPACK
 GLOBAL| DGEMM library                                                      BLAS
 GLOBAL| Orthonormality check for eigenvectors                          DISABLED
 GLOBAL| Matrix multiplication library                                 ScaLAPACK
 GLOBAL| All-to-all communication in single precision                          F
 GLOBAL| FFTs using library dependent lengths                                  F
 GLOBAL| Grid backend                                                       AUTO
 GLOBAL| Global print level                                               MEDIUM
 GLOBAL| MPI I/O enabled                                                       T
 GLOBAL| Total number of message passing processes                            24
 GLOBAL| Number of threads for this process                                    4
 GLOBAL| This output is from process                                           0
 GLOBAL| OpenMP stack size per thread (OMP_STACKSIZE)                    default
 GLOBAL| CPU model name             Intel(R) Xeon(R) Platinum 8174 CPU @ 3.10GHz

 MEMORY| system memory details [Kb]
 MEMORY|                        rank 0           min           max       average
 MEMORY| MemTotal             98436664      98436664      98436664      98436664
 MEMORY| MemFree              84192252      83697084      84192252      83944668
 MEMORY| Buffers                     0             0             0             0
 MEMORY| Cached                2407544       2407544       2421076       2414310
 MEMORY| Slab                  1211696       1211244       1211696       1211470
 MEMORY| SReclaimable           272568        272568        275996        274282
 MEMORY| MemLikelyFree        86872364      86394156      86872364      86633260


 *** Fundamental physical constants (SI units) ***

 *** Literature: B. J. Mohr and B. N. Taylor,
 ***             CODATA recommended values of the fundamental physical
 ***             constants: 2006, Web Version 5.1
 ***             http://physics.nist.gov/constants

 Speed of light in vacuum [m/s]                             2.99792458000000E+08
 Magnetic constant or permeability of vacuum [N/A**2]       1.25663706143592E-06
 Electric constant or permittivity of vacuum [F/m]          8.85418781762039E-12
 Planck constant (h) [J*s]                                  6.62606896000000E-34
 Planck constant (h-bar) [J*s]                              1.05457162825177E-34
 Elementary charge [C]                                      1.60217648700000E-19
 Electron mass [kg]                                         9.10938215000000E-31
 Electron g factor [ ]                                     -2.00231930436220E+00
 Proton mass [kg]                                           1.67262163700000E-27
 Fine-structure constant                                    7.29735253760000E-03
 Rydberg constant [1/m]                                     1.09737315685270E+07
 Avogadro constant [1/mol]                                  6.02214179000000E+23
 Boltzmann constant [J/K]                                   1.38065040000000E-23
 Atomic mass unit [kg]                                      1.66053878200000E-27
 Bohr radius [m]                                            5.29177208590000E-11

 *** Conversion factors ***

 [u] -> [a.u.]                                              1.82288848426455E+03
 [Angstrom] -> [Bohr] = [a.u.]                              1.88972613288564E+00
 [a.u.] = [Bohr] -> [Angstrom]                              5.29177208590000E-01
 [a.u.] -> [s]                                              2.41888432650478E-17
 [a.u.] -> [fs]                                             2.41888432650478E-02
 [a.u.] -> [J]                                              4.35974393937059E-18
 [a.u.] -> [N]                                              8.23872205491840E-08
 [a.u.] -> [K]                                              3.15774647902944E+05
 [a.u.] -> [kJ/mol]                                         2.62549961709828E+03
 [a.u.] -> [kcal/mol]                                       6.27509468713739E+02
 [a.u.] -> [Pa]                                             2.94210107994716E+13
 [a.u.] -> [bar]                                            2.94210107994716E+08
 [a.u.] -> [atm]                                            2.90362800883016E+08
 [a.u.] -> [eV]                                             2.72113838565563E+01
 [a.u.] -> [Hz]                                             6.57968392072181E+15
 [a.u.] -> [1/cm] (wave numbers)                            2.19474631370540E+05
 [a.u./Bohr**2] -> [1/cm]                                   5.14048714338585E+03
 

 CELL_TOP| Volume [angstrom^3]:                                     27000.000000
 CELL_TOP| Vector a [angstrom    30.000     0.000     0.000   |a| =    30.000000
 CELL_TOP| Vector b [angstrom     0.000    30.000     0.000   |b| =    30.000000
 CELL_TOP| Vector c [angstrom     0.000     0.000    30.000   |c| =    30.000000
 CELL_TOP| Angle (b,c), alpha [degree]:                                90.000000
 CELL_TOP| Angle (a,c), beta  [degree]:                                90.000000
 CELL_TOP| Angle (a,b), gamma [degree]:                                90.000000
 CELL_TOP| Numerically orthorhombic:                                         YES
 CELL_TOP| Periodicity                                                      NONE

 GENERATE|  Preliminary Number of Bonds generated:                             0
 GENERATE|  Achieved consistency in connectivity generation.

 CELL| Volume [angstrom^3]:                                         27000.000000
 CELL| Vector a [angstrom]:      30.000     0.000     0.000   |a| =    30.000000
 CELL| Vector b [angstrom]:       0.000    30.000     0.000   |b| =    30.000000
 CELL| Vector c [angstrom]:       0.000     0.000    30.000   |c| =    30.000000
 CELL| Angle (b,c), alpha [degree]:                                    90.000000
 CELL| Angle (a,c), beta  [degree]:                                    90.000000
 CELL| Angle (a,b), gamma [degree]:                                    90.000000
 CELL| Numerically orthorhombic:                                             YES
 CELL| Periodicity                                                          NONE

 CELL_REF| Volume [angstrom^3]:                                     27000.000000
 CELL_REF| Vector a [angstrom    30.000     0.000     0.000   |a| =    30.000000
 CELL_REF| Vector b [angstrom     0.000    30.000     0.000   |b| =    30.000000
 CELL_REF| Vector c [angstrom     0.000     0.000    30.000   |c| =    30.000000
 CELL_REF| Angle (b,c), alpha [degree]:                                90.000000
 CELL_REF| Angle (a,c), beta  [degree]:                                90.000000
 CELL_REF| Angle (a,b), gamma [degree]:                                90.000000
 CELL_REF| Numerically orthorhombic:                                         YES
 CELL_REF| Periodicity                                                      NONE

 *******************************************************************************
 *******************************************************************************
 **                                                                           **
 **     #####                         ##              ##                      **
 **    ##   ##            ##          ##              ##                      **
 **   ##     ##                       ##            ######                    **
 **   ##     ##  ##   ##  ##   #####  ##  ##   ####   ##    #####    #####    **
 **   ##     ##  ##   ##  ##  ##      ## ##   ##      ##   ##   ##  ##   ##   **
 **   ##  ## ##  ##   ##  ##  ##      ####     ###    ##   ######   ######    **
 **    ##  ###   ##   ##  ##  ##      ## ##      ##   ##   ##       ##        **
 **     #######   #####   ##   #####  ##  ##  ####    ##    #####   ##        **
 **           ##                                                    ##        **
 **                                                                           **
 **                                                ... make the atoms dance   **
 **                                                                           **
 **            Copyright (C) by CP2K developers group (2000-2025)             **
 **                      J. Chem. Phys. 152, 194103 (2020)                    **
 **                                                                           **
 *******************************************************************************

 DFT| Spin restricted Kohn-Sham (RKS) calculation                            RKS
 DFT| Multiplicity                                                             1
 DFT| Number of spin states                                                    1
 DFT| Charge                                                                   0
 DFT| Self-interaction correction (SIC)                                       NO
 DFT| Cutoffs: density                                              1.000000E-10
 DFT|          gradient                                             1.000000E-10
 DFT|          tau                                                  1.000000E-10
 DFT|          cutoff_smoothing_range                               0.000000E+00
 DFT| XC density smoothing                                                  NONE
 DFT| XC derivatives                                                          PW

 FUNCTIONAL| PBE:
 FUNCTIONAL| J.P.Perdew, K.Burke, M.Ernzerhof, Phys. Rev. Letter, vol. 77, n 18,
 FUNCTIONAL|  pp. 3865-3868, (1996)sx=0.750sc=1.000{spin unpolarized}           


 QS| Method:                                                                GAPW
 QS| Density plane wave grid type                        NON-SPHERICAL FULLSPACE
 QS| Number of grid levels:                                                    4
 QS| Density cutoff [a.u.]:                                                250.0
 QS| Multi grid cutoff [a.u.]: 1) grid level                               250.0
 QS|                           2) grid level                                83.3
 QS|                           3) grid level                                27.8
 QS|                           4) grid level                                 9.3
 QS| Grid level progression factor:                                          3.0
 QS| Relative density cutoff [a.u.]:                                        50.0
 QS| Interaction thresholds: eps_pgf_orb:                                1.0E-12
 QS|                         eps_filter_matrix:                          0.0E+00
 QS|                         eps_core_charge:                            1.0E-14
 QS|                         eps_rho_gspace:                             1.0E-12
 QS|                         eps_rho_rspace:                             1.0E-12
 QS|                         eps_gvg_rspace:                             1.0E-06
 QS|                         eps_ppl:                                    1.0E-02
 QS|                         eps_ppnl:                                   1.0E-08
 QS| GAPW|      One center basis from orbital basis primitives
 QS| GAPW|                   eps_fit:                                    1.0E-04
 QS| GAPW|                   eps_iso:                                    1.0E-12
 QS| GAPW|                   eps_svd:                                    1.0E-08
 QS| GAPW|                   eps_cpc:                                    1.0E-12
 QS| GAPW|   atom-r-grid: quadrature:                                     GC_LOG
 QS| GAPW|      atom-s-grid:  max l :                                          8
 QS| GAPW|      max_l_rho0 :                                                   2


 ATOMIC KIND INFORMATION

  1. Atomic kind: B                                     Number of atoms:       1

     Orbital Basis Set                                        aug-TZVP-MOLOPT-ae

       Number of orbital shell sets:                                           2
       Number of orbital shells:                                              16
       Number of primitive Cartesian functions:                               14
       Number of Cartesian basis functions:                                   71
       Number of spherical basis functions:                                   56
       Norm type:                                                              2

       Normalised Cartesian orbitals:

                        Set   Shell   Orbital            Exponent    Coefficient

                          1       1    1s                0.037000       0.000000
                                                         0.055000       0.000000
                                                         0.081527       0.004479
                                                         0.231037       0.004596
                                                         0.627002      -0.034128
                                                         1.676500       0.393631
                                                         4.312240       1.325154
                                                        22.230570       0.835541

                          1       2    2s                0.037000       0.000000
                                                         0.055000       0.000000
                                                         0.081527       0.019156
                                                         0.231037       0.063291
                                                         0.627002       0.285761
                                                         1.676500       0.111410
                                                         4.312240      -0.066893
                                                        22.230570       0.380608

                          1       3    3s                0.037000       0.000000
                                                         0.055000       0.000000
                                                         0.081527       0.006030
                                                         0.231037       0.332555
                                                         0.627002      -0.285066
                                                         1.676500      -0.419641
                                                         4.312240       0.371542
                                                        22.230570      -1.681688

                          1       4    4s                0.037000       0.000000
                                                         0.055000       0.000000
                                                         0.081527       0.125733
                                                         0.231037      -0.011328
                                                         0.627002      -0.219216
                                                         1.676500       0.322739
                                                         4.312240      -0.760293
                                                        22.230570       1.905892

                          1       5    5s                0.037000       0.231931
                                                         0.055000      -0.273497
                                                         0.081527       0.006948
                                                         0.231037      -0.015074
                                                         0.627002       0.038509
                                                         1.676500       0.007320
                                                         4.312240       0.000000
                                                        22.230570       0.000000

                          1       6    2px               0.037000       0.000000
                                                         0.055000       0.000000
                                                         0.081527       0.001696
                                                         0.231037       0.008046
                                                         0.627002       0.466960
                                                         1.676500       0.900411
                                                         4.312240       1.390356
                                                        22.230570       4.654930
                          1       6    2py               0.037000       0.000000
                                                         0.055000       0.000000
                                                         0.081527       0.001696
                                                         0.231037       0.008046
                                                         0.627002       0.466960
                                                         1.676500       0.900411
                                                         4.312240       1.390356
                                                        22.230570       4.654930
                          1       6    2pz               0.037000       0.000000
                                                         0.055000       0.000000
                                                         0.081527       0.001696
                                                         0.231037       0.008046
                                                         0.627002       0.466960
                                                         1.676500       0.900411
                                                         4.312240       1.390356
                                                        22.230570       4.654930

                          1       7    3px               0.037000       0.000000
                                                         0.055000       0.000000
                                                         0.081527      -0.002807
                                                         0.231037       0.232786
                                                         0.627002       0.042448
                                                         1.676500      -0.296803
                                                         4.312240      -1.541502
                                                        22.230570      -2.619980
                          1       7    3py               0.037000       0.000000
                                                         0.055000       0.000000
                                                         0.081527      -0.002807
                                                         0.231037       0.232786
                                                         0.627002       0.042448
                                                         1.676500      -0.296803
                                                         4.312240      -1.541502
                                                        22.230570      -2.619980
                          1       7    3pz               0.037000       0.000000
                                                         0.055000       0.000000
                                                         0.081527      -0.002807
                                                         0.231037       0.232786
                                                         0.627002       0.042448
                                                         1.676500      -0.296803
                                                         4.312240      -1.541502
                                                        22.230570      -2.619980

                          1       8    4px               0.037000       0.000000
                                                         0.055000       0.000000
                                                         0.081527       0.060026
                                                         0.231037       0.011408
                                                         0.627002       0.008231
                                                         1.676500      -0.436837
                                                         4.312240       1.515783
                                                        22.230570      -8.036820
                          1       8    4py               0.037000       0.000000
                                                         0.055000       0.000000
                                                         0.081527       0.060026
                                                         0.231037       0.011408
                                                         0.627002       0.008231
                                                         1.676500      -0.436837
                                                         4.312240       1.515783
                                                        22.230570      -8.036820
                          1       8    4pz               0.037000       0.000000
                                                         0.055000       0.000000
                                                         0.081527       0.060026
                                                         0.231037       0.011408
                                                         0.627002       0.008231
                                                         1.676500      -0.436837
                                                         4.312240       1.515783
                                                        22.230570      -8.036820

                          1       9    5px               0.037000       0.000467
                                                         0.055000      -0.024055
                                                         0.081527      -0.022149
                                                         0.231037      -0.019624
                                                         0.627002       0.043495
                                                         1.676500       0.050078
                                                         4.312240       0.000000
                                                        22.230570       0.000000
                          1       9    5py               0.037000       0.000467
                                                         0.055000      -0.024055
                                                         0.081527      -0.022149
                                                         0.231037      -0.019624
                                                         0.627002       0.043495
                                                         1.676500       0.050078
                                                         4.312240       0.000000
                                                        22.230570       0.000000
                          1       9    5pz               0.037000       0.000467
                                                         0.055000      -0.024055
                                                         0.081527      -0.022149
                                                         0.231037      -0.019624
                                                         0.627002       0.043495
                                                         1.676500       0.050078
                                                         4.312240       0.000000
                                                        22.230570       0.000000

                          1      10    3dx2              0.037000       0.000000
                                                         0.055000       0.000000
                                                         0.081527       0.002153
                                                         0.231037       0.011346
                                                         0.627002       0.387577
                                                         1.676500       2.056214
                                                         4.312240      -1.635688
                                                        22.230570     -74.959133
                          1      10    3dxy              0.037000       0.000000
                                                         0.055000       0.000000
                                                         0.081527       0.003728
                                                         0.231037       0.019651
                                                         0.627002       0.671303
                                                         1.676500       3.561468
                                                         4.312240      -2.833095
                                                        22.230570    -129.833027
                          1      10    3dxz              0.037000       0.000000
                                                         0.055000       0.000000
                                                         0.081527       0.003728
                                                         0.231037       0.019651
                                                         0.627002       0.671303
                                                         1.676500       3.561468
                                                         4.312240      -2.833095
                                                        22.230570    -129.833027
                          1      10    3dy2              0.037000       0.000000
                                                         0.055000       0.000000
                                                         0.081527       0.002153
                                                         0.231037       0.011346
                                                         0.627002       0.387577
                                                         1.676500       2.056214
                                                         4.312240      -1.635688
                                                        22.230570     -74.959133
                          1      10    3dyz              0.037000       0.000000
                                                         0.055000       0.000000
                                                         0.081527       0.003728
                                                         0.231037       0.019651
                                                         0.627002       0.671303
                                                         1.676500       3.561468
                                                         4.312240      -2.833095
                                                        22.230570    -129.833027
                          1      10    3dz2              0.037000       0.000000
                                                         0.055000       0.000000
                                                         0.081527       0.002153
                                                         0.231037       0.011346
                                                         0.627002       0.387577
                                                         1.676500       2.056214
                                                         4.312240      -1.635688
                                                        22.230570     -74.959133

                          1      11    4dx2              0.037000       0.000000
                                                         0.055000       0.000000
                                                         0.081527      -0.002553
                                                         0.231037       0.105095
                                                         0.627002       0.288898
                                                         1.676500      -1.711794
                                                         4.312240       1.670808
                                                        22.230570     100.877982
                          1      11    4dxy              0.037000       0.000000
                                                         0.055000       0.000000
                                                         0.081527      -0.004422
                                                         0.231037       0.182030
                                                         0.627002       0.500386
                                                         1.676500      -2.964914
                                                         4.312240       2.893924
                                                        22.230570     174.725791
                          1      11    4dxz              0.037000       0.000000
                                                         0.055000       0.000000
                                                         0.081527      -0.004422
                                                         0.231037       0.182030
                                                         0.627002       0.500386
                                                         1.676500      -2.964914
                                                         4.312240       2.893924
                                                        22.230570     174.725791
                          1      11    4dy2              0.037000       0.000000
                                                         0.055000       0.000000
                                                         0.081527      -0.002553
                                                         0.231037       0.105095
                                                         0.627002       0.288898
                                                         1.676500      -1.711794
                                                         4.312240       1.670808
                                                        22.230570     100.877982
                          1      11    4dyz              0.037000       0.000000
                                                         0.055000       0.000000
                                                         0.081527      -0.004422
                                                         0.231037       0.182030
                                                         0.627002       0.500386
                                                         1.676500      -2.964914
                                                         4.312240       2.893924
                                                        22.230570     174.725791
                          1      11    4dz2              0.037000       0.000000
                                                         0.055000       0.000000
                                                         0.081527      -0.002553
                                                         0.231037       0.105095
                                                         0.627002       0.288898
                                                         1.676500      -1.711794
                                                         4.312240       1.670808
                                                        22.230570     100.877982

                          1      12    5dx2              0.037000       0.000836
                                                         0.055000       0.008173
                                                         0.081527       0.001542
                                                         0.231037      -0.005613
                                                         0.627002       0.001771
                                                         1.676500       0.009900
                                                         4.312240       0.000000
                                                        22.230570       0.000000
                          1      12    5dxy              0.037000       0.001448
                                                         0.055000       0.014155
                                                         0.081527       0.002671
                                                         0.231037      -0.009722
                                                         0.627002       0.003067
                                                         1.676500       0.017147
                                                         4.312240       0.000000
                                                        22.230570       0.000000
                          1      12    5dxz              0.037000       0.001448
                                                         0.055000       0.014155
                                                         0.081527       0.002671
                                                         0.231037      -0.009722
                                                         0.627002       0.003067
                                                         1.676500       0.017147
                                                         4.312240       0.000000
                                                        22.230570       0.000000
                          1      12    5dy2              0.037000       0.000836
                                                         0.055000       0.008173
                                                         0.081527       0.001542
                                                         0.231037      -0.005613
                                                         0.627002       0.001771
                                                         1.676500       0.009900
                                                         4.312240       0.000000
                                                        22.230570       0.000000
                          1      12    5dyz              0.037000       0.001448
                                                         0.055000       0.014155
                                                         0.081527       0.002671
                                                         0.231037      -0.009722
                                                         0.627002       0.003067
                                                         1.676500       0.017147
                                                         4.312240       0.000000
                                                        22.230570       0.000000
                          1      12    5dz2              0.037000       0.000836
                                                         0.055000       0.008173
                                                         0.081527       0.001542
                                                         0.231037      -0.005613
                                                         0.627002       0.001771
                                                         1.676500       0.009900
                                                         4.312240       0.000000
                                                        22.230570       0.000000

                          1      13    4fx3              0.037000       0.000000
                                                         0.055000       0.000000
                                                         0.081527      -0.000984
                                                         0.231037       0.018935
                                                         0.627002       0.373794
                                                         1.676500       0.585978
                                                         4.312240      -0.290033
                                                        22.230570      20.762424
                          1      13    4fx2y             0.037000       0.000000
                                                         0.055000       0.000000
                                                         0.081527      -0.002200
                                                         0.231037       0.042339
                                                         0.627002       0.835829
                                                         1.676500       1.310286
                                                         4.312240      -0.648533
                                                        22.230570      46.426192
                          1      13    4fx2z             0.037000       0.000000
                                                         0.055000       0.000000
                                                         0.081527      -0.002200
                                                         0.231037       0.042339
                                                         0.627002       0.835829
                                                         1.676500       1.310286
                                                         4.312240      -0.648533
                                                        22.230570      46.426192
                          1      13    4fxy2             0.037000       0.000000
                                                         0.055000       0.000000
                                                         0.081527      -0.002200
                                                         0.231037       0.042339
                                                         0.627002       0.835829
                                                         1.676500       1.310286
                                                         4.312240      -0.648533
                                                        22.230570      46.426192
                          1      13    4fxyz             0.037000       0.000000
                                                         0.055000       0.000000
                                                         0.081527      -0.003810
                                                         0.231037       0.073333
                                                         0.627002       1.447698
                                                         1.676500       2.269481
                                                         4.312240      -1.123293
                                                        22.230570      80.412523
                          1      13    4fxz2             0.037000       0.000000
                                                         0.055000       0.000000
                                                         0.081527      -0.002200
                                                         0.231037       0.042339
                                                         0.627002       0.835829
                                                         1.676500       1.310286
                                                         4.312240      -0.648533
                                                        22.230570      46.426192
                          1      13    4fy3              0.037000       0.000000
                                                         0.055000       0.000000
                                                         0.081527      -0.000984
                                                         0.231037       0.018935
                                                         0.627002       0.373794
                                                         1.676500       0.585978
                                                         4.312240      -0.290033
                                                        22.230570      20.762424
                          1      13    4fy2z             0.037000       0.000000
                                                         0.055000       0.000000
                                                         0.081527      -0.002200
                                                         0.231037       0.042339
                                                         0.627002       0.835829
                                                         1.676500       1.310286
                                                         4.312240      -0.648533
                                                        22.230570      46.426192
                          1      13    4fyz2             0.037000       0.000000
                                                         0.055000       0.000000
                                                         0.081527      -0.002200
                                                         0.231037       0.042339
                                                         0.627002       0.835829
                                                         1.676500       1.310286
                                                         4.312240      -0.648533
                                                        22.230570      46.426192
                          1      13    4fz3              0.037000       0.000000
                                                         0.055000       0.000000
                                                         0.081527      -0.000984
                                                         0.231037       0.018935
                                                         0.627002       0.373794
                                                         1.676500       0.585978
                                                         4.312240      -0.290033
                                                        22.230570      20.762424

                          1      14    5fx3              0.037000       0.000585
                                                         0.055000       0.000724
                                                         0.081527       0.000168
                                                         0.231037      -0.001009
                                                         0.627002       0.001060
                                                         1.676500       0.009690
                                                         4.312240       0.000000
                                                        22.230570       0.000000
                          1      14    5fx2y             0.037000       0.001309
                                                         0.055000       0.001618
                                                         0.081527       0.000375
                                                         0.231037      -0.002256
                                                         0.627002       0.002370
                                                         1.676500       0.021667
                                                         4.312240       0.000000
                                                        22.230570       0.000000
                          1      14    5fx2z             0.037000       0.001309
                                                         0.055000       0.001618
                                                         0.081527       0.000375
                                                         0.231037      -0.002256
                                                         0.627002       0.002370
                                                         1.676500       0.021667
                                                         4.312240       0.000000
                                                        22.230570       0.000000
                          1      14    5fxy2             0.037000       0.001309
                                                         0.055000       0.001618
                                                         0.081527       0.000375
                                                         0.231037      -0.002256
                                                         0.627002       0.002370
                                                         1.676500       0.021667
                                                         4.312240       0.000000
                                                        22.230570       0.000000
                          1      14    5fxyz             0.037000       0.002267
                                                         0.055000       0.002802
                                                         0.081527       0.000650
                                                         0.231037      -0.003908
                                                         0.627002       0.004105
                                                         1.676500       0.037529
                                                         4.312240       0.000000
                                                        22.230570       0.000000
                          1      14    5fxz2             0.037000       0.001309
                                                         0.055000       0.001618
                                                         0.081527       0.000375
                                                         0.231037      -0.002256
                                                         0.627002       0.002370
                                                         1.676500       0.021667
                                                         4.312240       0.000000
                                                        22.230570       0.000000
                          1      14    5fy3              0.037000       0.000585
                                                         0.055000       0.000724
                                                         0.081527       0.000168
                                                         0.231037      -0.001009
                                                         0.627002       0.001060
                                                         1.676500       0.009690
                                                         4.312240       0.000000
                                                        22.230570       0.000000
                          1      14    5fy2z             0.037000       0.001309
                                                         0.055000       0.001618
                                                         0.081527       0.000375
                                                         0.231037      -0.002256
                                                         0.627002       0.002370
                                                         1.676500       0.021667
                                                         4.312240       0.000000
                                                        22.230570       0.000000
                          1      14    5fyz2             0.037000       0.001309
                                                         0.055000       0.001618
                                                         0.081527       0.000375
                                                         0.231037      -0.002256
                                                         0.627002       0.002370
                                                         1.676500       0.021667
                                                         4.312240       0.000000
                                                        22.230570       0.000000
                          1      14    5fz3              0.037000       0.000585
                                                         0.055000       0.000724
                                                         0.081527       0.000168
                                                         0.231037      -0.001009
                                                         0.627002       0.001060
                                                         1.676500       0.009690
                                                         4.312240       0.000000
                                                        22.230570       0.000000

                          1      15    5gx4              0.037000       0.000024
                                                         0.055000       0.000028
                                                         0.081527       0.000892
                                                         0.231037       0.000285
                                                         0.627002       0.001746
                                                         1.676500       0.026101
                                                         4.312240       0.000000
                                                        22.230570       0.000000
                          1      15    5gx3y             0.037000       0.000063
                                                         0.055000       0.000074
                                                         0.081527       0.002360
                                                         0.231037       0.000753
                                                         0.627002       0.004619
                                                         1.676500       0.069058
                                                         4.312240       0.000000
                                                        22.230570       0.000000
                          1      15    5gx3z             0.037000       0.000063
                                                         0.055000       0.000074
                                                         0.081527       0.002360
                                                         0.231037       0.000753
                                                         0.627002       0.004619
                                                         1.676500       0.069058
                                                         4.312240       0.000000
                                                        22.230570       0.000000
                          1      15    5gx2y2            0.037000       0.000082
                                                         0.055000       0.000096
                                                         0.081527       0.003047
                                                         0.231037       0.000972
                                                         0.627002       0.005964
                                                         1.676500       0.089153
                                                         4.312240       0.000000
                                                        22.230570       0.000000
                          1      15    5gx2yz            0.037000       0.000141
                                                         0.055000       0.000165
                                                         0.081527       0.005277
                                                         0.231037       0.001684
                                                         0.627002       0.010329
                                                         1.676500       0.154418
                                                         4.312240       0.000000
                                                        22.230570       0.000000
                          1      15    5gx2z2            0.037000       0.000082
                                                         0.055000       0.000096
                                                         0.081527       0.003047
                                                         0.231037       0.000972
                                                         0.627002       0.005964
                                                         1.676500       0.089153
                                                         4.312240       0.000000
                                                        22.230570       0.000000
                          1      15    5gxy3             0.037000       0.000063
                                                         0.055000       0.000074
                                                         0.081527       0.002360
                                                         0.231037       0.000753
                                                         0.627002       0.004619
                                                         1.676500       0.069058
                                                         4.312240       0.000000
                                                        22.230570       0.000000
                          1      15    5gxy2z            0.037000       0.000141
                                                         0.055000       0.000165
                                                         0.081527       0.005277
                                                         0.231037       0.001684
                                                         0.627002       0.010329
                                                         1.676500       0.154418
                                                         4.312240       0.000000
                                                        22.230570       0.000000
                          1      15    5gxyz2            0.037000       0.000141
                                                         0.055000       0.000165
                                                         0.081527       0.005277
                                                         0.231037       0.001684
                                                         0.627002       0.010329
                                                         1.676500       0.154418
                                                         4.312240       0.000000
                                                        22.230570       0.000000
                          1      15    5gxz3             0.037000       0.000063
                                                         0.055000       0.000074
                                                         0.081527       0.002360
                                                         0.231037       0.000753
                                                         0.627002       0.004619
                                                         1.676500       0.069058
                                                         4.312240       0.000000
                                                        22.230570       0.000000
                          1      15    5gy4              0.037000       0.000024
                                                         0.055000       0.000028
                                                         0.081527       0.000892
                                                         0.231037       0.000285
                                                         0.627002       0.001746
                                                         1.676500       0.026101
                                                         4.312240       0.000000
                                                        22.230570       0.000000
                          1      15    5gy3z             0.037000       0.000063
                                                         0.055000       0.000074
                                                         0.081527       0.002360
                                                         0.231037       0.000753
                                                         0.627002       0.004619
                                                         1.676500       0.069058
                                                         4.312240       0.000000
                                                        22.230570       0.000000
                          1      15    5gy2z2            0.037000       0.000082
                                                         0.055000       0.000096
                                                         0.081527       0.003047
                                                         0.231037       0.000972
                                                         0.627002       0.005964
                                                         1.676500       0.089153
                                                         4.312240       0.000000
                                                        22.230570       0.000000
                          1      15    5gyz3             0.037000       0.000063
                                                         0.055000       0.000074
                                                         0.081527       0.002360
                                                         0.231037       0.000753
                                                         0.627002       0.004619
                                                         1.676500       0.069058
                                                         4.312240       0.000000
                                                        22.230570       0.000000
                          1      15    5gz4              0.037000       0.000024
                                                         0.055000       0.000028
                                                         0.081527       0.000892
                                                         0.231037       0.000285
                                                         0.627002       0.001746
                                                         1.676500       0.026101
                                                         4.312240       0.000000
                                                        22.230570       0.000000

                          2       1    1s             8564.805310       0.470718
                                                      1284.266148       1.037560
                                                       292.317852       1.564613
                                                        82.773089       2.737633
                                                        26.955680       2.121910
                                                         9.937437       2.701101

     RI Auxiliary Basis Set             RI_aug-TZVP-MOLOPT-ae_N_RI_034_s_p_d_f_g

       Number of orbital shell sets:                                          12
       Number of orbital shells:                                              12
       Number of primitive Cartesian functions:                               12
       Number of Cartesian basis functions:                                   39
       Number of spherical basis functions:                                   34
       Norm type:                                                              2

       Normalised Cartesian orbitals:

                        Set   Shell   Orbital            Exponent    Coefficient

                          1       1    1s                0.184868       0.200936

                          2       1    6px               0.296925       0.312427
                          2       1    6py               0.296925       0.312427
                          2       1    6pz               0.296925       0.312427

                          3       1   10dx2              0.391104       0.318362
                          3       1   10dxy              0.391104       0.551419
                          3       1   10dxz              0.391104       0.551419
                          3       1   10dy2              0.391104       0.318362
                          3       1   10dyz              0.391104       0.551419
                          3       1   10dz2              0.391104       0.318362

                          4       1    2s                0.393377       0.354011

                          5       1    7px               0.442150       0.513927
                          5       1    7py               0.442150       0.513927
                          5       1    7pz               0.442150       0.513927

                          6       1   12fx3              0.766642       0.809631
                          6       1   12fx2y             0.766642       1.810391
                          6       1   12fx2z             0.766642       1.810391
                          6       1   12fxy2             0.766642       1.810391
                          6       1   12fxyz             0.766642       3.135689
                          6       1   12fxz2             0.766642       1.810391
                          6       1   12fy3              0.766642       0.809631
                          6       1   12fy2z             0.766642       1.810391
                          6       1   12fyz2             0.766642       1.810391
                          6       1   12fz3              0.766642       0.809631

                          7       1   11dx2              0.937586       1.470377
                          7       1   11dxy              0.937586       2.546767
                          7       1   11dxz              0.937586       2.546767
                          7       1   11dy2              0.937586       1.470377
                          7       1   11dyz              0.937586       2.546767
                          7       1   11dz2              0.937586       1.470377

                          8       1    3s                1.114731       0.773193

                          9       1    8px               1.994911       3.379439
                          9       1    8py               1.994911       3.379439
                          9       1    8pz               1.994911       3.379439

                         10       1    4s                5.600728       2.594738

                         11       1    9px              10.547589      27.094528
                         11       1    9py              10.547589      27.094528
                         11       1    9pz              10.547589      27.094528

                         12       1    5s               35.118619      10.281658

       Atomic covalent radius [Angstrom]:                                  0.820

       Atomic van der Waals radius [Angstrom]:                             1.920

     The atoms of this atomic kind are PAW atoms (GAPW):
       Hard Gaussian function radius:                                      1.512
       Rho0 radius:                                                        1.512
       Maximum GTO radius used for PAW projector construction:            24.566

     GAPW Soft Basis Set                                 aug-TZVP-MOLOPT-ae_soft

       Number of orbital shell sets:                                           2
       Number of orbital shells:                                              16
       Number of primitive Cartesian functions:                                7
       Number of Cartesian basis functions:                                   71
       Number of spherical basis functions:                                   56
       Norm type:                                                              2

       Normalised Cartesian orbitals:

                        Set   Shell   Orbital            Exponent    Coefficient

                          1       1    1s                0.037000       0.000000
                                                         0.055000       0.000000
                                                         0.081527       0.004479
                                                         0.231037       0.004596
                                                         0.627002      -0.034128
                                                         1.676500       0.393631
                                                         4.312240       0.000000

                          1       2    2s                0.037000       0.000000
                                                         0.055000       0.000000
                                                         0.081527       0.019156
                                                         0.231037       0.063291
                                                         0.627002       0.285761
                                                         1.676500       0.111410
                                                         4.312240       0.000000

                          1       3    3s                0.037000       0.000000
                                                         0.055000       0.000000
                                                         0.081527       0.006030
                                                         0.231037       0.332555
                                                         0.627002      -0.285066
                                                         1.676500      -0.419641
                                                         4.312240       0.000000

                          1       4    4s                0.037000       0.000000
                                                         0.055000       0.000000
                                                         0.081527       0.125733
                                                         0.231037      -0.011328
                                                         0.627002      -0.219216
                                                         1.676500       0.322739
                                                         4.312240       0.000000

                          1       5    5s                0.037000       0.231931
                                                         0.055000      -0.273497
                                                         0.081527       0.006948
                                                         0.231037      -0.015074
                                                         0.627002       0.038509
                                                         1.676500       0.007320
                                                         4.312240       0.000000

                          1       6    2px               0.037000       0.000000
                                                         0.055000       0.000000
                                                         0.081527       0.001696
                                                         0.231037       0.008046
                                                         0.627002       0.466960
                                                         1.676500       0.900411
                                                         4.312240       0.000000
                          1       6    2py               0.037000       0.000000
                                                         0.055000       0.000000
                                                         0.081527       0.001696
                                                         0.231037       0.008046
                                                         0.627002       0.466960
                                                         1.676500       0.900411
                                                         4.312240       0.000000
                          1       6    2pz               0.037000       0.000000
                                                         0.055000       0.000000
                                                         0.081527       0.001696
                                                         0.231037       0.008046
                                                         0.627002       0.466960
                                                         1.676500       0.900411
                                                         4.312240       0.000000

                          1       7    3px               0.037000       0.000000
                                                         0.055000       0.000000
                                                         0.081527      -0.002807
                                                         0.231037       0.232786
                                                         0.627002       0.042448
                                                         1.676500      -0.296803
                                                         4.312240       0.000000
                          1       7    3py               0.037000       0.000000
                                                         0.055000       0.000000
                                                         0.081527      -0.002807
                                                         0.231037       0.232786
                                                         0.627002       0.042448
                                                         1.676500      -0.296803
                                                         4.312240       0.000000
                          1       7    3pz               0.037000       0.000000
                                                         0.055000       0.000000
                                                         0.081527      -0.002807
                                                         0.231037       0.232786
                                                         0.627002       0.042448
                                                         1.676500      -0.296803
                                                         4.312240       0.000000

                          1       8    4px               0.037000       0.000000
                                                         0.055000       0.000000
                                                         0.081527       0.060026
                                                         0.231037       0.011408
                                                         0.627002       0.008231
                                                         1.676500      -0.436837
                                                         4.312240       0.000000
                          1       8    4py               0.037000       0.000000
                                                         0.055000       0.000000
                                                         0.081527       0.060026
                                                         0.231037       0.011408
                                                         0.627002       0.008231
                                                         1.676500      -0.436837
                                                         4.312240       0.000000
                          1       8    4pz               0.037000       0.000000
                                                         0.055000       0.000000
                                                         0.081527       0.060026
                                                         0.231037       0.011408
                                                         0.627002       0.008231
                                                         1.676500      -0.436837
                                                         4.312240       0.000000

                          1       9    5px               0.037000       0.000467
                                                         0.055000      -0.024055
                                                         0.081527      -0.022149
                                                         0.231037      -0.019624
                                                         0.627002       0.043495
                                                         1.676500       0.050078
                                                         4.312240       0.000000
                          1       9    5py               0.037000       0.000467
                                                         0.055000      -0.024055
                                                         0.081527      -0.022149
                                                         0.231037      -0.019624
                                                         0.627002       0.043495
                                                         1.676500       0.050078
                                                         4.312240       0.000000
                          1       9    5pz               0.037000       0.000467
                                                         0.055000      -0.024055
                                                         0.081527      -0.022149
                                                         0.231037      -0.019624
                                                         0.627002       0.043495
                                                         1.676500       0.050078
                                                         4.312240       0.000000

                          1      10    3dx2              0.037000       0.000000
                                                         0.055000       0.000000
                                                         0.081527       0.002153
                                                         0.231037       0.011346
                                                         0.627002       0.387577
                                                         1.676500       2.056214
                                                         4.312240      -1.635688
                          1      10    3dxy              0.037000       0.000000
                                                         0.055000       0.000000
                                                         0.081527       0.003728
                                                         0.231037       0.019651
                                                         0.627002       0.671303
                                                         1.676500       3.561468
                                                         4.312240      -2.833095
                          1      10    3dxz              0.037000       0.000000
                                                         0.055000       0.000000
                                                         0.081527       0.003728
                                                         0.231037       0.019651
                                                         0.627002       0.671303
                                                         1.676500       3.561468
                                                         4.312240      -2.833095
                          1      10    3dy2              0.037000       0.000000
                                                         0.055000       0.000000
                                                         0.081527       0.002153
                                                         0.231037       0.011346
                                                         0.627002       0.387577
                                                         1.676500       2.056214
                                                         4.312240      -1.635688
                          1      10    3dyz              0.037000       0.000000
                                                         0.055000       0.000000
                                                         0.081527       0.003728
                                                         0.231037       0.019651
                                                         0.627002       0.671303
                                                         1.676500       3.561468
                                                         4.312240      -2.833095
                          1      10    3dz2              0.037000       0.000000
                                                         0.055000       0.000000
                                                         0.081527       0.002153
                                                         0.231037       0.011346
                                                         0.627002       0.387577
                                                         1.676500       2.056214
                                                         4.312240      -1.635688

[...]
   418 Broy./Diag. 0.10E+00    6.3     0.20380437       -80.2064546980 -6.38E-02
   419 Broy./Diag. 0.10E+00    6.4     0.13636283       -79.7783069272  4.28E-01
   420 Broy./Diag. 0.10E+00    6.4     0.08148205       -80.0152835432 -2.37E-01
   421 Broy./Diag. 0.10E+00    6.4     0.05892897       -79.9148860828  1.00E-01
   422 Broy./Diag. 0.10E+00    6.4     0.08194533       -79.9157917434 -9.06E-04
   423 Broy./Diag. 0.10E+00    6.4     0.09853712       -79.9555055989 -3.97E-02
   424 Broy./Diag. 0.10E+00    6.4     0.03183777       -80.1122455922 -1.57E-01
   425 Broy./Diag. 0.10E+00    6.5     0.03462863       -80.2208100077 -1.09E-01
   426 Broy./Diag. 0.10E+00    6.4     0.04321244       -80.2559135143 -3.51E-02
   427 Broy./Diag. 0.10E+00    6.4     0.10348231       -80.3280963725 -7.22E-02
   428 Broy./Diag. 0.10E+00    6.4     0.10877152       -80.5095724018 -1.81E-01
   429 Broy./Diag. 0.10E+00    6.4     0.10394727       -80.3206572191  1.89E-01
   430 Broy./Diag. 0.10E+00    6.3     0.15202264       -80.1413660314  1.79E-01
   431 Broy./Diag. 0.10E+00    6.3     0.23949104       -80.0100750542  1.31E-01
   432 Broy./Diag. 0.10E+00    6.4     0.10428563       -79.2790264349  7.31E-01
   433 Broy./Diag. 0.10E+00    6.6     0.14548480       -79.5716519928 -2.93E-01
   434 Broy./Diag. 0.10E+00    6.4     0.08723290       -80.0325051134 -4.61E-01
   435 Broy./Diag. 0.10E+00    6.5     0.07345007       -80.1523826808 -1.20E-01
   436 Broy./Diag. 0.10E+00    6.4     0.06982051       -80.2497382372 -9.74E-02
   437 Broy./Diag. 0.10E+00    6.5     0.02504414       -80.4327582369 -1.83E-01
   438 Broy./Diag. 0.10E+00    6.4     0.06147800       -80.3872093494  4.55E-02
   439 Broy./Diag. 0.10E+00    6.3     0.05928037       -80.1618396425  2.25E-01
   440 Broy./Diag. 0.10E+00    6.4     0.04054974       -80.0448034017  1.17E-01
   441 Broy./Diag. 0.10E+00    6.4     0.04301711       -80.0238660891  2.09E-02
   442 Broy./Diag. 0.10E+00    6.4     0.07017950       -79.9231363574  1.01E-01
   443 Broy./Diag. 0.10E+00    6.4     0.16218210       -79.7594449957  1.64E-01
   444 Broy./Diag. 0.10E+00    6.3     0.07373908       -79.1970034972  5.62E-01
   445 Broy./Diag. 0.10E+00    6.4     0.05344561       -79.1359594907  6.10E-02
   446 Broy./Diag. 0.10E+00    6.3     0.04246455       -79.3337040109 -1.98E-01
   447 Broy./Diag. 0.10E+00    6.4     0.03374863       -79.2047095083  1.29E-01
   448 Broy./Diag. 0.10E+00    6.4     0.02540655       -79.3403370433 -1.36E-01
   449 Broy./Diag. 0.10E+00    6.5     0.09943688       -79.3587320292 -1.84E-02
   450 Broy./Diag. 0.10E+00    6.4     0.07435388       -79.5711175431 -2.12E-01
   451 Broy./Diag. 0.10E+00    6.4     0.05680637       -79.6825085347 -1.11E-01
   452 Broy./Diag. 0.10E+00    6.4     0.03480386       -79.7627672956 -8.03E-02
   453 Broy./Diag. 0.10E+00    6.4     0.02407715       -79.7602984199  2.47E-03
   454 Broy./Diag. 0.10E+00    6.4     0.02291984       -79.7283138641  3.20E-02
   455 Broy./Diag. 0.10E+00    6.4     0.02260241       -79.7351760062 -6.86E-03
   456 Broy./Diag. 0.10E+00    6.4     0.04447333       -79.7281027945  7.07E-03
   457 Broy./Diag. 0.10E+00    6.4     0.04706112       -79.5818426994  1.46E-01
   458 Broy./Diag. 0.10E+00    6.4     0.04604790       -79.4504823298  1.31E-01
   459 Broy./Diag. 0.10E+00    6.3     0.11652798       -79.4497942811  6.88E-04
   460 Broy./Diag. 0.10E+00    6.3     0.18852729       -79.2172130508  2.33E-01
   461 Broy./Diag. 0.10E+00    6.4     0.08085113       -78.8226604326  3.95E-01
   462 Broy./Diag. 0.10E+00    6.4     0.06935319       -78.7400819649  8.26E-02
   463 Broy./Diag. 0.10E+00    6.4     0.20233751       -78.9511597796 -2.11E-01
   464 Broy./Diag. 0.10E+00    6.4     0.08179663       -79.6415660548 -6.90E-01
   465 Broy./Diag. 0.10E+00    6.4     0.09579434       -79.7337244757 -9.22E-02
   466 Broy./Diag. 0.10E+00    6.4     0.06643280       -79.9496522538 -2.16E-01
   467 Broy./Diag. 0.10E+00    6.4     0.05972498       -80.0950855199 -1.45E-01
   468 Broy./Diag. 0.10E+00    6.3     0.03724420       -80.1923775680 -9.73E-02
   469 Broy./Diag. 0.10E+00    6.3     0.04593602       -80.2031704931 -1.08E-02
   470 Broy./Diag. 0.10E+00    6.3     0.06360985       -80.2121903698 -9.02E-03
   471 Broy./Diag. 0.10E+00    6.3     0.06206734       -80.0881457626  1.24E-01
   472 Broy./Diag. 0.10E+00    6.4     0.05040195       -79.9697500205  1.18E-01
   473 Broy./Diag. 0.10E+00    6.4     0.07345167       -79.9031694640  6.66E-02
   474 Broy./Diag. 0.10E+00    6.4     0.05518065       -79.6934115686  2.10E-01
   475 Broy./Diag. 0.10E+00    6.3     0.30662265       -79.6266337485  6.68E-02
   476 Broy./Diag. 0.10E+00    6.5     0.16356310       -78.8653705477  7.61E-01
   477 Broy./Diag. 0.10E+00    6.4     0.13513587       -79.4456212214 -5.80E-01
   478 Broy./Diag. 0.10E+00    6.4     0.10839160       -79.8561557520 -4.11E-01
   479 Broy./Diag. 0.10E+00    6.4     0.08097803       -80.1991125266 -3.43E-01
   480 Broy./Diag. 0.10E+00    6.5     0.04148759       -80.3834443034 -1.84E-01
   481 Broy./Diag. 0.10E+00    6.4     0.01483514       -80.4062572844 -2.28E-02
   482 Broy./Diag. 0.10E+00    6.4     0.09337848       -80.3507253558  5.55E-02
   483 Broy./Diag. 0.10E+00    6.4     0.05469243       -80.0787327100  2.72E-01
   484 Broy./Diag. 0.10E+00    6.4     0.05585662       -79.9559501801  1.23E-01
   485 Broy./Diag. 0.10E+00    6.3     0.11163203       -79.8144051220  1.42E-01
   486 Broy./Diag. 0.10E+00    6.3     0.13847330       -79.5126645144  3.02E-01
   487 Broy./Diag. 0.10E+00    6.3     0.12558365       -79.1325208681  3.80E-01
   488 Broy./Diag. 0.10E+00    6.3     0.05375407       -78.8793534342  2.53E-01
   489 Broy./Diag. 0.10E+00    6.3     0.03056283       -78.8850708631 -5.72E-03
   490 Broy./Diag. 0.10E+00    6.3     0.02385225       -78.8799650512  5.11E-03
   491 Broy./Diag. 0.10E+00    6.3     0.02091989       -78.8836229618 -3.66E-03
   492 Broy./Diag. 0.10E+00    6.4     0.02075956       -78.9126753747 -2.91E-02
   493 Broy./Diag. 0.10E+00    6.3     0.03167040       -79.0093253998 -9.67E-02
   494 Broy./Diag. 0.10E+00    6.4     0.04873445       -79.1557170963 -1.46E-01
   495 Broy./Diag. 0.10E+00    6.3     0.03293023       -79.2797986483 -1.24E-01
   496 Broy./Diag. 0.10E+00    6.4     0.01663026       -79.1109988382  1.69E-01
   497 Broy./Diag. 0.10E+00    6.4     0.07333519       -79.1069890725  4.01E-03
   498 Broy./Diag. 0.10E+00    6.4     0.01800858       -79.3378542878 -2.31E-01
   499 Broy./Diag. 0.10E+00    6.4     0.02444608       -79.3329363277  4.92E-03
   500 Broy./Diag. 0.10E+00    6.4     0.01761698       -79.2233256296  1.10E-01

  Leaving inner SCF loop after reaching   500 steps.


  Electronic density on regular grids:         -8.2070103890        3.7929896110
  Core density on regular grids:               12.0000000000        0.0000000000
  Hard and soft densities (Lebedev):         -125.3394787100     -121.5404558480
  Total Rho_soft + Rho1_hard - Rho1_soft      -12.0060332510
  Total charge density (r-space):              -0.0060332510
  Total Rho_soft + Rho0_soft (g-space):        -0.0060333378

  Overlap energy of the core charge distribution:               0.00001993455823
  Self energy of the core charge distribution:                -64.05191455199152
  Core Hamiltonian energy:                                    -14.30820617551845
  Hartree energy:                                              16.60739297310253
  Exchange-correlation energy:                                 -2.64849313027889
  Hartree-Fock Exchange energy:                                -2.55685344675438

  GAPW| Exc from hard and soft atomic rho1:                    -5.41728615408095
  GAPW| local Eh = 1 center integrals:                         -6.84798507865241

  Total energy:                                               -79.22332562961586

 *******************************************************************************
 *   ___                                                                       *
 *  /   \                                                                      *
 * [ABORT]                                                                     *
 *  \___/     SCF run NOT converged. To continue the calculation regardless,   *
 *    |             please set the keyword IGNORE_CONVERGENCE_FAILURE.         *
 *  O/|                                                                        *
 * /| |                                                                        *
 * / \                                                            qs_scf.F:611 *
 *******************************************************************************


 ===== Routine Calling Stack ===== 

            3 scf_env_do_scf
            2 qs_energies
            1 CP2K

 *******************************************************************************
 *   ___                                                                       *
 *  /   \                                                                      *
 * [ABORT]                                                                     *
 *  \___/     SCF run NOT converged. To continue the calculation regardless,   *
 *    |             please set the keyword IGNORE_CONVERGENCE_FAILURE.         *
 *  O/|                                                                        *
 * /| |                                                                        *
 * / \                                                            qs_scf.F:611 *
 *******************************************************************************


 ===== Routine Calling Stack ===== 

            3 scf_env_do_scf
            2 qs_energies
            1 CP2K

 *******************************************************************************
 *   ___                                                                       *
 *  /   \                                                                      *
 * [ABORT]                                                                     *
 *  \___/     SCF run NOT converged. To continue the calculation regardless,   *
 *    |             please set the keyword IGNORE_CONVERGENCE_FAILURE.         *
 *  O/|                                                                        *
 * /| |                                                                        *
 * / \                                                            qs_scf.F:611 *
 *******************************************************************************


 ===== Routine Calling Stack ===== 

            3 scf_env_do_scf
            2 qs_energies
            1 CP2K

 *******************************************************************************
 *   ___                                                                       *
 *  /   \                                                                      *
 * [ABORT]                                                                     *
 *  \___/     SCF run NOT converged. To continue the calculation regardless,   *
 *    |             please set the keyword IGNORE_CONVERGENCE_FAILURE.         *
 *  O/|                                                                        *
 * /| |                                                                        *
 * / \                                                            qs_scf.F:611 *
 *******************************************************************************


 ===== Routine Calling Stack ===== 

            3 scf_env_do_scf
            2 qs_energies
            1 CP2K

 *******************************************************************************
 *   ___                                                                       *
 *  /   \                                                                      *
 * [ABORT]                                                                     *
 *  \___/     SCF run NOT converged. To continue the calculation regardless,   *
 *    |             please set the keyword IGNORE_CONVERGENCE_FAILURE.         *
 *  O/|                                                                        *
 * /| |                                                                        *
 * / \                                                            qs_scf.F:611 *
 *******************************************************************************


 ===== Routine Calling Stack ===== 

            3 scf_env_do_scf
            2 qs_energies
            1 CP2K

 *******************************************************************************
 *   ___                                                                       *
 *  /   \                                                                      *
 * [ABORT]                                                                     *
 *  \___/     SCF run NOT converged. To continue the calculation regardless,   *
 *    |             please set the keyword IGNORE_CONVERGENCE_FAILURE.         *
 *  O/|                                                                        *
 * /| |                                                                        *
 * / \                                                            qs_scf.F:611 *
 *******************************************************************************


 ===== Routine Calling Stack ===== 

            3 scf_env_do_scf
            2 qs_energies
            1 CP2K

 *******************************************************************************
 *   ___                                                                       *
 *  /   \                                                                      *
 * [ABORT]                                                                     *
 *  \___/     SCF run NOT converged. To continue the calculation regardless,   *
 *    |             please set the keyword IGNORE_CONVERGENCE_FAILURE.         *
 *  O/|                                                                        *
 * /| |                                                                        *
 * / \                                                            qs_scf.F:611 *
 *******************************************************************************


 ===== Routine Calling Stack ===== 

            3 scf_env_do_scf
            2 qs_energies
            1 CP2K

 *******************************************************************************
 *   ___                                                                       *
 *  /   \                                                                      *
 * [ABORT]                                                                     *
 *  \___/     SCF run NOT converged. To continue the calculation regardless,   *
 *    |             please set the keyword IGNORE_CONVERGENCE_FAILURE.         *
 *  O/|                                                                        *
 * /| |                                                                        *
 * / \                                                            qs_scf.F:611 *
 *******************************************************************************


 ===== Routine Calling Stack ===== 

            3 scf_env_do_scf
            2 qs_energies
            1 CP2K

 *******************************************************************************
 *   ___                                                                       *
 *  /   \                                                                      *
 * [ABORT]                                                                     *
 *  \___/     SCF run NOT converged. To continue the calculation regardless,   *
 *    |             please set the keyword IGNORE_CONVERGENCE_FAILURE.         *
 *  O/|                                                                        *
 * /| |                                                                        *
 * / \                                                            qs_scf.F:611 *
 *******************************************************************************


 ===== Routine Calling Stack ===== 

            3 scf_env_do_scf
            2 qs_energies
            1 CP2K

 *******************************************************************************
 *   ___                                                                       *
 *  /   \                                                                      *
 * [ABORT]                                                                     *
 *  \___/     SCF run NOT converged. To continue the calculation regardless,   *
 *    |             please set the keyword IGNORE_CONVERGENCE_FAILURE.         *
 *  O/|                                                                        *
 * /| |                                                                        *
 * / \                                                            qs_scf.F:611 *
 *******************************************************************************


 ===== Routine Calling Stack ===== 

            3 scf_env_do_scf
            2 qs_energies
            1 CP2K

 *******************************************************************************
 *   ___                                                                       *
 *  /   \                                                                      *
 * [ABORT]                                                                     *
 *  \___/     SCF run NOT converged. To continue the calculation regardless,   *
 *    |             please set the keyword IGNORE_CONVERGENCE_FAILURE.         *
 *  O/|                                                                        *
 * /| |                                                                        *
 * / \                                                            qs_scf.F:611 *
 *******************************************************************************


 ===== Routine Calling Stack ===== 

            3 scf_env_do_scf
            2 qs_energies
            1 CP2K

 *******************************************************************************
 *   ___                                                                       *
 *  /   \                                                                      *
 * [ABORT]                                                                     *
 *  \___/     SCF run NOT converged. To continue the calculation regardless,   *
 *    |             please set the keyword IGNORE_CONVERGENCE_FAILURE.         *
 *  O/|                                                                        *
 * /| |                                                                        *
 * / \                                                            qs_scf.F:611 *
 *******************************************************************************


 ===== Routine Calling Stack ===== 

            3 scf_env_do_scf
            2 qs_energies
            1 CP2K

 *******************************************************************************
 *   ___                                                                       *
 *  /   \                                                                      *
 * [ABORT]                                                                     *
 *  \___/     SCF run NOT converged. To continue the calculation regardless,   *
 *    |             please set the keyword IGNORE_CONVERGENCE_FAILURE.         *
 *  O/|                                                                        *
 * /| |                                                                        *
 * / \                                                            qs_scf.F:611 *
 *******************************************************************************


 ===== Routine Calling Stack ===== 

            3 scf_env_do_scf
            2 qs_energies
            1 CP2K
