 DBCSR| CPU Multiplication driver                                           BLAS (U)
 DBCSR| Multrec recursion limit                                              512 (U)
 DBCSR| Multiplication stack size                                           1000 (D)
 DBCSR| Maximum elements for images                                    UNLIMITED (U)
 DBCSR| Multiplicative factor virtual images                                   1 (U)
 DBCSR| Use multiplication densification                                       T (D)
 DBCSR| Multiplication size stacks                                             3 (U)
 DBCSR| Use memory pool for CPU allocation                                     F (U)
 DBCSR| Number of 3D layers                                               SINGLE (U)
 DBCSR| Use MPI memory allocation                                              F (U)
 DBCSR| Use RMA algorithm                                                      F (U)
 DBCSR| Use Communication thread                                               T (U)
 DBCSR| Communication thread load                                             75 (D)
 DBCSR| MPI: My process id                                                     0
 DBCSR| MPI: Number of processes                                              24
 DBCSR| OMP: Current number of threads                                         4
 DBCSR| OMP: Max number of threads                                             4
 DBCSR| Split modifier for TAS multiplication algorithm                  1.0E+00 (U)


  **** **** ******  **  PROGRAM STARTED AT               2025-03-16 13:56:12.961
 ***** ** ***  *** **   PROGRAM STARTED ON                          i01r07c01s12
 **    ****   ******    PROGRAM STARTED BY                               di38fab
 ***** **    ** ** **   PROGRAM PROCESS ID                               1641859
  **** **  *******  **  PROGRAM STARTED IN /hppfs/scratch/04/di38fab/05_MOL/W4-1
                                           1+ALK/nh/SZVSR/GW+BSE/1e-3

 CP2K| version string:                 CP2K version 2025.1 (Development Version)
 CP2K| source code revision number:                                  git:d2e611a
 CP2K| cp2kflags: omp libint fftw3 libxc parallel scalapack max_contr=4         
 CP2K| is freely available from                            https://www.cp2k.org/
 CP2K| Program compiled at                       Thu 06 Mar 2025 05:09:20 PM CET
 CP2K| Program compiled on                                               login02
 CP2K| Program compiled for                                        Supermuc-foss
 CP2K| Data directory path                  /hppfs/work/pn36zo/di38fab/cp2k/data
 CP2K| Input file name                                                    GW.inp

 GLOBAL| Force Environment number                                              1
 GLOBAL| Basis set file name            /hppfs/scratch/04/di38fab/04_TMD/BASIS_A
 GLOBAL| Potential file name            /hppfs/work/pn36zo/di38fab/cp2k/data/ALL
 GLOBAL| MM Potential file name                                     MM_POTENTIAL
 GLOBAL| Coordinate file name                                      __STD_INPUT__
 GLOBAL| Method name                                                        CP2K
 GLOBAL| Project name                                                       MoS2
 GLOBAL| Run type                                                         ENERGY
 GLOBAL| FFT library                                                       FFTW3
 GLOBAL| Diagonalization library                                       ScaLAPACK
 GLOBAL| DGEMM library                                                      BLAS
 GLOBAL| Orthonormality check for eigenvectors                          DISABLED
 GLOBAL| Matrix multiplication library                                 ScaLAPACK
 GLOBAL| All-to-all communication in single precision                          F
 GLOBAL| FFTs using library dependent lengths                                  F
 GLOBAL| Grid backend                                                       AUTO
 GLOBAL| Global print level                                               MEDIUM
 GLOBAL| MPI I/O enabled                                                       T
 GLOBAL| Total number of message passing processes                            24
 GLOBAL| Number of threads for this process                                    4
 GLOBAL| This output is from process                                           0
 GLOBAL| OpenMP stack size per thread (OMP_STACKSIZE)                    default
 GLOBAL| CPU model name             Intel(R) Xeon(R) Platinum 8174 CPU @ 3.10GHz

 MEMORY| system memory details [Kb]
 MEMORY|                        rank 0           min           max       average
 MEMORY| MemTotal             98436664      98436660      98436664      98436662
 MEMORY| MemFree              83969744      83969744      84065784      84017764
 MEMORY| Buffers                     0             0             0             0
 MEMORY| Cached                2398588       2398588       2408228       2403408
 MEMORY| Slab                  1235972       1235972       1251968       1243970
 MEMORY| SReclaimable           268420        268420        278092        273256
 MEMORY| MemLikelyFree        86636752      86636752      86752104      86694428


 *** Fundamental physical constants (SI units) ***

 *** Literature: B. J. Mohr and B. N. Taylor,
 ***             CODATA recommended values of the fundamental physical
 ***             constants: 2006, Web Version 5.1
 ***             http://physics.nist.gov/constants

 Speed of light in vacuum [m/s]                             2.99792458000000E+08
 Magnetic constant or permeability of vacuum [N/A**2]       1.25663706143592E-06
 Electric constant or permittivity of vacuum [F/m]          8.85418781762039E-12
 Planck constant (h) [J*s]                                  6.62606896000000E-34
 Planck constant (h-bar) [J*s]                              1.05457162825177E-34
 Elementary charge [C]                                      1.60217648700000E-19
 Electron mass [kg]                                         9.10938215000000E-31
 Electron g factor [ ]                                     -2.00231930436220E+00
 Proton mass [kg]                                           1.67262163700000E-27
 Fine-structure constant                                    7.29735253760000E-03
 Rydberg constant [1/m]                                     1.09737315685270E+07
 Avogadro constant [1/mol]                                  6.02214179000000E+23
 Boltzmann constant [J/K]                                   1.38065040000000E-23
 Atomic mass unit [kg]                                      1.66053878200000E-27
 Bohr radius [m]                                            5.29177208590000E-11

 *** Conversion factors ***

 [u] -> [a.u.]                                              1.82288848426455E+03
 [Angstrom] -> [Bohr] = [a.u.]                              1.88972613288564E+00
 [a.u.] = [Bohr] -> [Angstrom]                              5.29177208590000E-01
 [a.u.] -> [s]                                              2.41888432650478E-17
 [a.u.] -> [fs]                                             2.41888432650478E-02
 [a.u.] -> [J]                                              4.35974393937059E-18
 [a.u.] -> [N]                                              8.23872205491840E-08
 [a.u.] -> [K]                                              3.15774647902944E+05
 [a.u.] -> [kJ/mol]                                         2.62549961709828E+03
 [a.u.] -> [kcal/mol]                                       6.27509468713739E+02
 [a.u.] -> [Pa]                                             2.94210107994716E+13
 [a.u.] -> [bar]                                            2.94210107994716E+08
 [a.u.] -> [atm]                                            2.90362800883016E+08
 [a.u.] -> [eV]                                             2.72113838565563E+01
 [a.u.] -> [Hz]                                             6.57968392072181E+15
 [a.u.] -> [1/cm] (wave numbers)                            2.19474631370540E+05
 [a.u./Bohr**2] -> [1/cm]                                   5.14048714338585E+03
 

 CELL_TOP| Volume [angstrom^3]:                                     27000.000000
 CELL_TOP| Vector a [angstrom    30.000     0.000     0.000   |a| =    30.000000
 CELL_TOP| Vector b [angstrom     0.000    30.000     0.000   |b| =    30.000000
 CELL_TOP| Vector c [angstrom     0.000     0.000    30.000   |c| =    30.000000
 CELL_TOP| Angle (b,c), alpha [degree]:                                90.000000
 CELL_TOP| Angle (a,c), beta  [degree]:                                90.000000
 CELL_TOP| Angle (a,b), gamma [degree]:                                90.000000
 CELL_TOP| Numerically orthorhombic:                                         YES
 CELL_TOP| Periodicity                                                      NONE

 GENERATE|  Preliminary Number of Bonds generated:                             0
 GENERATE|  Achieved consistency in connectivity generation.

 CELL| Volume [angstrom^3]:                                         27000.000000
 CELL| Vector a [angstrom]:      30.000     0.000     0.000   |a| =    30.000000
 CELL| Vector b [angstrom]:       0.000    30.000     0.000   |b| =    30.000000
 CELL| Vector c [angstrom]:       0.000     0.000    30.000   |c| =    30.000000
 CELL| Angle (b,c), alpha [degree]:                                    90.000000
 CELL| Angle (a,c), beta  [degree]:                                    90.000000
 CELL| Angle (a,b), gamma [degree]:                                    90.000000
 CELL| Numerically orthorhombic:                                             YES
 CELL| Periodicity                                                          NONE

 CELL_REF| Volume [angstrom^3]:                                     27000.000000
 CELL_REF| Vector a [angstrom    30.000     0.000     0.000   |a| =    30.000000
 CELL_REF| Vector b [angstrom     0.000    30.000     0.000   |b| =    30.000000
 CELL_REF| Vector c [angstrom     0.000     0.000    30.000   |c| =    30.000000
 CELL_REF| Angle (b,c), alpha [degree]:                                90.000000
 CELL_REF| Angle (a,c), beta  [degree]:                                90.000000
 CELL_REF| Angle (a,b), gamma [degree]:                                90.000000
 CELL_REF| Numerically orthorhombic:                                         YES
 CELL_REF| Periodicity                                                      NONE

 *******************************************************************************
 *******************************************************************************
 **                                                                           **
 **     #####                         ##              ##                      **
 **    ##   ##            ##          ##              ##                      **
 **   ##     ##                       ##            ######                    **
 **   ##     ##  ##   ##  ##   #####  ##  ##   ####   ##    #####    #####    **
 **   ##     ##  ##   ##  ##  ##      ## ##   ##      ##   ##   ##  ##   ##   **
 **   ##  ## ##  ##   ##  ##  ##      ####     ###    ##   ######   ######    **
 **    ##  ###   ##   ##  ##  ##      ## ##      ##   ##   ##       ##        **
 **     #######   #####   ##   #####  ##  ##  ####    ##    #####   ##        **
 **           ##                                                    ##        **
 **                                                                           **
 **                                                ... make the atoms dance   **
 **                                                                           **
 **            Copyright (C) by CP2K developers group (2000-2025)             **
 **                      J. Chem. Phys. 152, 194103 (2020)                    **
 **                                                                           **
 *******************************************************************************

 DFT| Spin restricted Kohn-Sham (RKS) calculation                            RKS
 DFT| Multiplicity                                                             1
 DFT| Number of spin states                                                    1
 DFT| Charge                                                                   0
 DFT| Self-interaction correction (SIC)                                       NO
 DFT| Cutoffs: density                                              1.000000E-10
 DFT|          gradient                                             1.000000E-10
 DFT|          tau                                                  1.000000E-10
 DFT|          cutoff_smoothing_range                               0.000000E+00
 DFT| XC density smoothing                                                  NONE
 DFT| XC derivatives                                                          PW

 FUNCTIONAL| PBE:
 FUNCTIONAL| J.P.Perdew, K.Burke, M.Ernzerhof, Phys. Rev. Letter, vol. 77, n 18,
 FUNCTIONAL|  pp. 3865-3868, (1996)sx=0.750sc=1.000{spin unpolarized}           


 QS| Method:                                                                GAPW
 QS| Density plane wave grid type                        NON-SPHERICAL FULLSPACE
 QS| Number of grid levels:                                                    4
 QS| Density cutoff [a.u.]:                                                250.0
 QS| Multi grid cutoff [a.u.]: 1) grid level                               250.0
 QS|                           2) grid level                                83.3
 QS|                           3) grid level                                27.8
 QS|                           4) grid level                                 9.3
 QS| Grid level progression factor:                                          3.0
 QS| Relative density cutoff [a.u.]:                                        50.0
 QS| Interaction thresholds: eps_pgf_orb:                                1.0E-12
 QS|                         eps_filter_matrix:                          0.0E+00
 QS|                         eps_core_charge:                            1.0E-14
 QS|                         eps_rho_gspace:                             1.0E-12
 QS|                         eps_rho_rspace:                             1.0E-12
 QS|                         eps_gvg_rspace:                             1.0E-06
 QS|                         eps_ppl:                                    1.0E-02
 QS|                         eps_ppnl:                                   1.0E-08
 QS| GAPW|      One center basis from orbital basis primitives
 QS| GAPW|                   eps_fit:                                    1.0E-04
 QS| GAPW|                   eps_iso:                                    1.0E-12
 QS| GAPW|                   eps_svd:                                    1.0E-08
 QS| GAPW|                   eps_cpc:                                    1.0E-12
 QS| GAPW|   atom-r-grid: quadrature:                                     GC_LOG
 QS| GAPW|      atom-s-grid:  max l :                                          4
 QS| GAPW|      max_l_rho0 :                                                   2
 QS| GAPW|      At least one kind is NOT PAW, i.e. it has only soft AO 
 QS| GAPW|      The NOT PAW atoms are treated fully GPW


 ATOMIC KIND INFORMATION

  1. Atomic kind: N                                     Number of atoms:       1

     Orbital Basis Set                                      aug-SZV-MOLOPT-ae-SR

       Number of orbital shell sets:                                           2
       Number of orbital shells:                                               6
       Number of primitive Cartesian functions:                                7
       Number of Cartesian basis functions:                                   15
       Number of spherical basis functions:                                   14
       Norm type:                                                              2

       Normalised Cartesian orbitals:

                        Set   Shell   Orbital            Exponent    Coefficient

                          1       1    1s                0.112012       0.000000
                                                         0.285714       0.194997
                                                         0.878497       0.258372
                                                         3.780456      -0.193164

                          1       2    2s                0.112012       0.083551
                                                         0.285714      -0.189186
                                                         0.878497      -0.469875
                                                         3.780456      -0.002085

                          1       3    2px               0.112012       0.000000
                                                         0.285714       0.116706
                                                         0.878497       0.736704
                                                         3.780456       1.171553
                          1       3    2py               0.112012       0.000000
                                                         0.285714       0.116706
                                                         0.878497       0.736704
                                                         3.780456       1.171553
                          1       3    2pz               0.112012       0.000000
                                                         0.285714       0.116706
                                                         0.878497       0.736704
                                                         3.780456       1.171553

                          1       4    3px               0.112012       0.141957
                                                         0.285714      -0.286713
                                                         0.878497       0.074784
                                                         3.780456       0.008085
                          1       4    3py               0.112012       0.141957
                                                         0.285714      -0.286713
                                                         0.878497       0.074784
                                                         3.780456       0.008085
                          1       4    3pz               0.112012       0.141957
                                                         0.285714      -0.286713
                                                         0.878497       0.074784
                                                         3.780456       0.008085

                          1       5    3dx2              0.112012      -0.000364
                                                         0.285714       0.186009
                                                         0.878497      -0.044751
                                                         3.780456       1.815169
                          1       5    3dxy              0.112012      -0.000630
                                                         0.285714       0.322177
                                                         0.878497      -0.077512
                                                         3.780456       3.143965
                          1       5    3dxz              0.112012      -0.000630
                                                         0.285714       0.322177
                                                         0.878497      -0.077512
                                                         3.780456       3.143965
                          1       5    3dy2              0.112012      -0.000364
                                                         0.285714       0.186009
                                                         0.878497      -0.044751
                                                         3.780456       1.815169
                          1       5    3dyz              0.112012      -0.000630
                                                         0.285714       0.322177
                                                         0.878497      -0.077512
                                                         3.780456       3.143965
                          1       5    3dz2              0.112012      -0.000364
                                                         0.285714       0.186009
                                                         0.878497      -0.044751
                                                         3.780456       1.815169

                          2       1    1s               99.106169       3.454881
                                                        18.052312       3.341410
                                                         4.885660       1.041372

     RI Auxiliary Basis Set             RI_aug-SZV-MOLOPT-ae-SR_N_RI_025_s_p_d_f

       Number of orbital shell sets:                                           9
       Number of orbital shells:                                               9
       Number of primitive Cartesian functions:                                9
       Number of Cartesian basis functions:                                   29
       Number of spherical basis functions:                                   25
       Norm type:                                                              2

       Normalised Cartesian orbitals:

                        Set   Shell   Orbital            Exponent    Coefficient

                          1       1    1s                0.366043       0.335397

                          2       1    5px               0.438786       0.509044
                          2       1    5py               0.438786       0.509044
                          2       1    5pz               0.438786       0.509044

                          3       1    8dx2              0.671703       0.820294
                          3       1    8dxy              0.671703       1.420790
                          3       1    8dxz              0.671703       1.420790
                          3       1    8dy2              0.671703       0.820294
                          3       1    8dyz              0.671703       1.420790
                          3       1    8dz2              0.671703       0.820294

                          4       1    9fx3              0.687025       0.632620
                          4       1    9fx2y             0.687025       1.414582
                          4       1    9fx2z             0.687025       1.414582
                          4       1    9fxy2             0.687025       1.414582
                          4       1    9fxyz             0.687025       2.450128
                          4       1    9fxz2             0.687025       1.414582
                          4       1    9fy3              0.687025       0.632620
                          4       1    9fy2z             0.687025       1.414582
                          4       1    9fyz2             0.687025       1.414582
                          4       1    9fz3              0.687025       0.632620

                          5       1    2s                1.338522       0.886909

                          6       1    6px               1.638006       2.641401
                          6       1    6py               1.638006       2.641401
                          6       1    6pz               1.638006       2.641401

                          7       1    3s               12.321949       4.687266

                          8       1    7px              21.347579      65.407246
                          8       1    7py              21.347579      65.407246
                          8       1    7pz              21.347579      65.407246

                          9       1    4s              109.598167      24.141406

       Atomic covalent radius [Angstrom]:                                  0.750

       Atomic van der Waals radius [Angstrom]:                             1.550

     The atoms of this atomic kind are PAW atoms (GAPW):
       Hard Gaussian function radius:                                      1.512
       Rho0 radius:                                                        1.512
       Maximum GTO radius used for PAW projector construction:            24.566

     GAPW Soft Basis Set                               aug-SZV-MOLOPT-ae-SR_soft

       Number of orbital shell sets:                                           2
       Number of orbital shells:                                               6
       Number of primitive Cartesian functions:                                4
       Number of Cartesian basis functions:                                   15
       Number of spherical basis functions:                                   14
       Norm type:                                                              2

       Normalised Cartesian orbitals:

                        Set   Shell   Orbital            Exponent    Coefficient

                          1       1    1s                0.112012       0.000000
                                                         0.285714       0.194997
                                                         0.878497       0.258372
                                                         3.780456      -0.193164

                          1       2    2s                0.112012       0.083551
                                                         0.285714      -0.189186
                                                         0.878497      -0.469875
                                                         3.780456      -0.002085

                          1       3    2px               0.112012       0.000000
                                                         0.285714       0.116706
                                                         0.878497       0.736704
                                                         3.780456       1.171553
                          1       3    2py               0.112012       0.000000
                                                         0.285714       0.116706
                                                         0.878497       0.736704
                                                         3.780456       1.171553
                          1       3    2pz               0.112012       0.000000
                                                         0.285714       0.116706
                                                         0.878497       0.736704
                                                         3.780456       1.171553

                          1       4    3px               0.112012       0.141957
                                                         0.285714      -0.286713
                                                         0.878497       0.074784
                                                         3.780456       0.008085
                          1       4    3py               0.112012       0.141957
                                                         0.285714      -0.286713
                                                         0.878497       0.074784
                                                         3.780456       0.008085
                          1       4    3pz               0.112012       0.141957
                                                         0.285714      -0.286713
                                                         0.878497       0.074784
                                                         3.780456       0.008085

                          1       5    3dx2              0.112012      -0.000364
                                                         0.285714       0.186009
                                                         0.878497      -0.044751
                                                         3.780456       1.815169
                          1       5    3dxy              0.112012      -0.000630
                                                         0.285714       0.322177
                                                         0.878497      -0.077512
                                                         3.780456       3.143965
                          1       5    3dxz              0.112012      -0.000630
                                                         0.285714       0.322177
                                                         0.878497      -0.077512
                                                         3.780456       3.143965
                          1       5    3dy2              0.112012      -0.000364
                                                         0.285714       0.186009
                                                         0.878497      -0.044751
                                                         3.780456       1.815169
                          1       5    3dyz              0.112012      -0.000630
                                                         0.285714       0.322177
                                                         0.878497      -0.077512
                                                         3.780456       3.143965
                          1       5    3dz2              0.112012      -0.000364
                                                         0.285714       0.186009
                                                         0.878497      -0.044751
                                                         3.780456       1.815169

                          2       1    1s         

     AE Potential information for                                            ALL

       Description:                                       All-electron potential
                                          Krack, Parrinello, PCCP 2, 2105 (2000)

       Gaussian exponent of the core charge distribution:               5.979100
       Electronic configuration (s p d ...):                           4   3   0

  2. Atomic kind: H                                     Number of atoms:       1

     Orbital Basis Set                                      aug-SZV-MOLOPT-ae-SR

       Number of orbital shell sets:                                           1
       Number of orbital shells:                                               4
       Number of primitive Cartesian functions:                                4
       Number of Cartesian basis functions:                                    6
       Number of spherical basis functions:                                    6
       Norm type:                                                              2

       Normalised Cartesian orbitals:

                        Set   Shell   Orbital            Exponent    Coefficient

                          1       1    2s                0.065428       0.000000
                                                         0.168855       0.083474
                                                         0.623914       0.267839
                                                         3.425251       0.276934

                          1       2    3s                0.065428      -0.066952
                                                         0.168855       0.261968
                                                         0.623914       0.081548
                                                         3.425251      -0.022414

                          1       3    4s                0.065428       0.165615
                                                         0.168855      -0.226449
                                                         0.623914      -0.005802
                                                         3.425251       0.005451

                          1       4    3px               0.065428       0.053063
                                                         0.168855      -0.030502
                                                         0.623914       0.062721
                                                         3.425251       0.019012
                          1       4    3py               0.065428       0.053063
                                                         0.168855      -0.030502
                                                         0.623914       0.062721
                                                         3.425251       0.019012
                          1       4    3pz               0.065428       0.053063
                                                         0.168855      -0.030502
                                                         0.623914       0.062721
                                                         3.425251       0.019012

     RI Auxiliary Basis Set             RI_aug-SZV-MOLOPT-ae-SR_N_RI_006_s_p_d_f

       Number of orbital shell sets:                                           4
       Number of orbital shells:                                               4
       Number of primitive Cartesian functions:                                4
       Number of Cartesian basis functions:                                    6
       Number of spherical basis functions:                                    6
       Norm type:                                                              2

       Normalised Cartesian orbitals:

                        Set   Shell   Orbital            Exponent    Coefficient

                          1       1    1s                0.310545       0.296485

                          2       1    4px               0.543207       0.664733
                          2       1    4py               0.543207       0.664733
                          2       1    4pz               0.543207       0.664733

                          3       1    2s                0.965126       0.693982

                          4       1    3s                3.094977       1.663042

       Atomic covalent radius [Angstrom]:                                  0.320

       Atomic van der Waals radius [Angstrom]:                             1.090

     AE Potential information for                                            ALL

       Description:                                       All-electron potential
                                          Krack, Parrinello, PCCP 2, 2105 (2000)

       Gaussian exponent of the core charge distribution:              12.500000
       Electronic configuration (s p d ...):                           1   0   0


 MOLECULE KIND INFORMATION


 All atoms are their own molecule, skipping detailed information


 TOTAL NUMBERS AND MAXIMUM NUMBERS

  Total number of            - Atomic kinds:                                   2
                             - Atoms:                                          2
                             - Shell sets:                                     3
                             - Shells:                                        10
                             - Primitive Cartesian functions:                 11
                             - Cartesian basis functions:                     21
                             - Spherical basis functions:                     20

  Maximum angular momentum of the orbital basis functions:                     2


 MODULE QUICKSTEP: ATOMIC COORDINATES IN ANGSTROM

   Atom Kind Element         X             Y             Z       Z(eff)     Mass
      1    1 N     7     15.518596     15.000000     15.000000   7.0000  14.0067
      2    2 H     1     14.481404     15.000000     15.000000   1.0000   1.0079



 SCF PARAMETERS         Density guess:                                    ATOMIC
                        --------------------------------------------------------
                        max_scf:                                             500
                        max_scf_history:                                       0
                        max_diis:                                              4
                        --------------------------------------------------------
                        eps_scf:                                        1.00E-06
                        eps_scf_history:                                0.00E+00
                        eps_diis:                                       1.00E-01
                        eps_eigval:                                     1.00E-05
                        --------------------------------------------------------
                        level_shift [a.u.]:                             0.000000
                        added MOs                                        16    0
                        --------------------------------------------------------
                        Mixing method:                            BROYDEN_MIXING
                                                charge density mixing in g-space
                        --------------------------------------------------------
                        No outer SCF

 PW_GRID| Information for grid number                                          1
 PW_GRID| Grid distributed over                                    24 processors
 PW_GRID| Real space group dimensions                                    24    1
 PW_GRID| the grid is blocked:                                                NO
 PW_GRID| Cutoff [a.u.]                                                    250.0
 PW_GRID| spherical cutoff:                                                   NO
 PW_GRID|   Bounds   1           -202     202                Points:         405
 PW_GRID|   Bounds   2           -202     202                Points:         405
 PW_GRID|   Bounds   3           -202     202                Points:         405
 PW_GRID| Volume element (a.u.^3)  0.2743E-02     Volume (a.u.^3)    182205.0337
 PW_GRID| Grid span                                                    FULLSPACE
 PW_GRID|   Distribution                         Average         Max         Min
 PW_GRID|   G-Vectors                          2767921.9     2768175     2767770
 PW_GRID|   G-Rays                                6834.4        6835        6834
 PW_GRID|   Real Space Points                  2767921.9     2788425     2624400

 PW_GRID| Information for grid number                                          2
 PW_GRID| Number of the reference grid                                         1
 PW_GRID| Grid distributed over                                    24 processors
 PW_GRID| Real space group dimensions                                    24    1
 PW_GRID| the grid is blocked:                                                NO
 PW_GRID| Cutoff [a.u.]                                                     83.3
 PW_GRID| spherical cutoff:                                                   NO
 PW_GRID|   Bounds   1           -120     119                Points:         240
 PW_GRID|   Bounds   2           -120     119                Points:         240
 PW_GRID|   Bounds   3           -120     119                Points:         240
 PW_GRID| Volume element (a.u.^3)  0.1318E-01     Volume (a.u.^3)    182205.0337
 PW_GRID| Grid span                                                    FULLSPACE
 PW_GRID|   Distribution                         Average         Max         Min
 PW_GRID|   G-Vectors                           576000.0      576240      575760
 PW_GRID|   G-Rays                                2400.0        2401        2399
 PW_GRID|   Real Space Points                   576000.0      576000      576000

 PW_GRID| Information for grid number                                          3
 PW_GRID| Number of the reference grid                                         1
 PW_GRID| Grid distributed over                                    24 processors
 PW_GRID| Real space group dimensions                                    24    1
 PW_GRID| the grid is blocked:                                                NO
 PW_GRID| Cutoff [a.u.]                                                     27.8
 PW_GRID| spherical cutoff:                                                   NO
 PW_GRID|   Bounds   1            -67      67                Points:         135
 PW_GRID|   Bounds   2            -67      67                Points:         135
 PW_GRID|   Bounds   3            -67      67                Points:         135
 PW_GRID| Volume element (a.u.^3)  0.7406E-01     Volume (a.u.^3)    182205.0337
 PW_GRID| Grid span                                                    FULLSPACE
 PW_GRID|   Distribution                         Average         Max         Min
 PW_GRID|   G-Vectors                           102515.6      102735      102330
 PW_GRID|   G-Rays                                 759.4         761         758
 PW_GRID|   Real Space Points                   102515.6      109350       91125

 PW_GRID| Information for grid number                                          4
 PW_GRID| Number of the reference grid                                         1
 PW_GRID| Grid distributed over                                    24 processors
 PW_GRID| Real space group dimensions                                    24    1
 PW_GRID| the grid is blocked:                                                NO
 PW_GRID| Cutoff [a.u.]                                                      9.3
 PW_GRID| spherical cutoff:                                                   NO
 PW_GRID|   Bounds   1            -40      39                Points:          80
 PW_GRID|   Bounds   2            -40      39                Points:          80
 PW_GRID|   Bounds   3            -40      39                Points:          80
 PW_GRID| Volume element (a.u.^3)  0.3559         Volume (a.u.^3)    182205.0337
 PW_GRID| Grid span                                                    FULLSPACE
 PW_GRID|   Distribution                         Average         Max         Min
 PW_GRID|   G-Vectors                            21333.3       21360       21280
 PW_GRID|   G-Rays                                 266.7         267         266
 PW_GRID|   Real Space Points                    21333.3       25600       19200

 POISSON| Solver                                                         WAVELET
 POISSON| Wavelet| Scaling function                                           40
 POISSON| Periodicity                                                       NONE

 RS_GRID| Information for grid number                                          1
 RS_GRID|   Bounds   1           -202     202                Points:         405
 RS_GRID|   Bounds   2           -202     202                Points:         405
 RS_GRID|   Bounds   3           -202     202                Points:         405
 RS_GRID| Real space distribution over                                  4 groups
 RS_GRID| Real space distribution along direction                              2
 RS_GRID| Border size                                                         34
 RS_GRID| Real space distribution over                                  6 groups
 RS_GRID| Real space distribution along direction                              3
 RS_GRID| Border size                                                         34
 RS_GRID|   Distribution                         Average         Max         Min
 RS_GRID|   Planes                                 169.2         170         169
 RS_GRID|   Distribution                         Average         Max         Min
 RS_GRID|   Planes                                 135.5         136         135

 RS_GRID| Information for grid number                                          2
 RS_GRID|   Bounds   1           -120     119                Points:         240
 RS_GRID|   Bounds   2           -120     119                Points:         240
 RS_GRID|   Bounds   3           -120     119                Points:         240
 RS_GRID| Real space distribution over                                  4 groups
 RS_GRID| Real space distribution along direction                              2
 RS_GRID| Border size                                                         37
 RS_GRID| Real space distribution over                                  6 groups
 RS_GRID| Real space distribution along direction                              3
 RS_GRID| Border size                                                         37
 RS_GRID|   Distribution                         Average         Max         Min
 RS_GRID|   Planes                                 134.0         134         134
 RS_GRID|   Distribution                         Average         Max         Min
 RS_GRID|   Planes                                 114.0         114         114

 RS_GRID| Information for grid number                                          3
 RS_GRID|   Bounds   1            -67      67                Points:         135
 RS_GRID|   Bounds   2            -67      67                Points:         135
 RS_GRID|   Bounds   3            -67      67                Points:         135
 RS_GRID| Real space fully replicated
 RS_GRID| Group size                                                           1

 RS_GRID| Information for grid number                                          4
 RS_GRID|   Bounds   1            -40      39                Points:          80
 RS_GRID|   Bounds   2            -40      39                Points:          80
 RS_GRID|   Bounds   3            -40      39                Points:          80
 RS_GRID| Real space fully replicated
 RS_GRID| Group size                                                           1

  HFX_INFO| Replica ID:                                                        1
  HFX_INFO| FRACTION:                                               0.2500000000
  HFX_INFO| Interaction Potential:                                       COULOMB
  HFX_INFO| EPS_SCHWARZ:                                                 1.0E-10
  HFX_INFO| EPS_SCHWARZ_FORCES                                           1.0E-08
  HFX_INFO| EPS_STORAGE_SCALING:                                         1.0E+00
  HFX_INFO| NBINS:                                                            64
  HFX_INFO| BLOCK_SIZE:                                                        1
  HFX_INFO| Number of periodic shells considered:                           NONE
  HFX_INFO| Number of periodic cells considered:                            NONE

 
 RI-RPA| using GPW style
 

 OVERLAP MATRIX CONDITION NUMBER
 1-Norm Condition Number (Estimate)
   CN : |A|*|A^-1|:  4.207E+000 *  1.116E+002   = 4.694E+002  Log(1-CN):  2.6715
 1-Norm and 2-Norm Condition Numbers using Diagonalization
   CN : |A|*|A^-1|:  4.207E+000 *  1.116E+002   = 4.694E+002  Log(1-CN):  2.6715
   CN : max/min ev:  2.973E+000 /  1.372E-002   = 2.168E+002  Log(2-CN):  2.3360

 Number of electrons:                                                          8
 Number of occupied orbitals:                                                  4
 Number of molecular orbitals:                                                20

 Number of orbital functions:                                                 20
 Number of independent orbital functions:                                     20

 Extrapolation method: initial_guess

 Atomic guess: The first density matrix is obtained in terms of atomic orbitals
               and electronic configurations assigned to each atomic kind

 Guess for atomic kind: N

 Electronic structure
    Total number of core electrons                                          0.00
    Total number of valence electrons                                       7.00
    Total number of electrons                                               7.00
    Multiplicity                                                   not specified
    S      2.00  2.00
    P      3.00


 *******************************************************************************
                  Iteration          Convergence                     Energy [au]
 *******************************************************************************
                          1        0.159909                     -53.340877683251
                          2        0.769146E-01                 -53.353877926770
                          3        0.463278E-03                 -53.358451509292
                          4        0.156014E-03                 -53.358451645833
                          5        0.102251E-04                 -53.358451658533
                          6        0.178265E-08                 -53.358451658590

 Energy components [Hartree]           Total Energy ::          -53.358451658590
                                        Band Energy ::          -29.695765597812
                                     Kinetic Energy ::           52.385975587247
                                   Potential Energy ::         -105.744427245837
                                      Virial (-V/T) ::            2.018563672060
                                        Core Energy ::          -72.851122194822
                                          XC Energy ::           -6.109149652554
                                     Coulomb Energy ::           25.601820188786

 Orbital energies  State     L     Occupation   Energy[a.u.]          Energy[eV]

                       1     0          2.000     -13.845221         -376.747634
                       2     0          2.000      -0.658428          -17.916731

                       1     1          3.000      -0.229489           -6.244716


 Total Electron Density at R=0:                                       126.344533

 Guess for atomic kind: H

 Electronic structure
    Total number of core electrons                                          0.00
    Total number of valence electrons                                       1.00
    Total number of electrons                                               1.00
    Multiplicity                                                   not specified
    S      1.00


 *******************************************************************************
                  Iteration          Convergence                     Energy [au]
 *******************************************************************************
                          1        0.105001E-01                  -0.442912571909
                          2        0.809393E-03                  -0.443000038014
                          3        0.126045E-03                  -0.443002205783
                          4        0.926691E-07                  -0.443002227638

 Energy components [Hartree]           Total Energy ::           -0.443002227638
                                        Band Energy ::           -0.231242105371
                                     Kinetic Energy ::            0.416655567325
                                   Potential Energy ::           -0.859657794963
                                      Virial (-V/T) ::            2.063233669195
                                        Core Energy ::           -0.493343888102
                                          XC Energy ::           -0.231659799565
                                     Coulomb Energy ::            0.282001460029

 Orbital energies  State     L     Occupation   Energy[a.u.]          Energy[eV]

                       1     0          1.000      -0.231242           -6.292418


 Total Electron Density at R=0:                                         0.184980
 Re-scaling the density matrix to get the right number of electrons
                  # Electrons              Trace(P)               Scaling factor
                            8                 8.000                        1.000


 SCF WAVEFUNCTION OPTIMIZATION

  Step     Update method      Time    Convergence         Total energy    Change
  ------------------------------------------------------------------------------

  HFX_MEM_INFO| Est. max. program size before HFX [MiB]:                    2196
  HFX_MEM_INFO| Number of cart. primitive ERI's calculated:              5879217
  HFX_MEM_INFO| Number of sph. ERI's calculated:                           73312
  HFX_MEM_INFO| Number of sph. ERI's stored in-core:                       73312
  HFX_MEM_INFO| Number of sph. ERI's stored on disk:                           0
  HFX_MEM_INFO| Number of sph. ERI's calculated on the fly:                    0
  HFX_MEM_INFO| Total memory consumption ERI's RAM [MiB]:                      1
  HFX_MEM_INFO| Whereof max-vals [MiB]:                                        1
  HFX_MEM_INFO| Total compression factor ERI's RAM:                         0.57
  HFX_MEM_INFO| Total memory consumption ERI's disk [MiB]:                     0
  HFX_MEM_INFO| Total compression factor ERI's disk:                        0.00
  HFX_MEM_INFO| Size of density/Fock matrix [MiB]:                             0
  HFX_MEM_INFO| Size of buffers [MiB]:                                         0
  HFX_MEM_INFO| Est. max. program size after HFX  [MiB]:                    2706

     1 NoMix/Diag. 0.10E+00    6.2     0.94794644       -54.3549978085 -5.44E+01
     2 Broy./Diag. 0.10E+00    4.8     0.06088563       -53.9753469839  3.80E-01
     3 Broy./Diag. 0.10E+00    4.9     0.04747581       -53.9711080436  4.24E-03
     4 Broy./Diag. 0.10E+00    5.0     0.06612576       -54.2580321922 -2.87E-01
     5 Broy./Diag. 0.10E+00    4.9     0.01773389       -54.4639872130 -2.06E-01
     6 Broy./Diag. 0.10E+00    5.0     0.01632898       -54.4616725321  2.31E-03
     7 Broy./Diag. 0.10E+00    5.0     0.01613122       -54.3965558824  6.51E-02
     8 Broy./Diag. 0.10E+00    5.1     0.00274111       -54.3637945645  3.28E-02
     9 Broy./Diag. 0.10E+00    5.2     0.02078525       -54.4076086894 -4.38E-02
    10 Broy./Diag. 0.10E+00    5.3     0.00591113       -54.4631211809 -5.55E-02
    11 Broy./Diag. 0.10E+00    5.4     0.00517469       -54.4609701468  2.15E-03
    12 Broy./Diag. 0.10E+00    5.3     0.00949325       -54.4231123820  3.79E-02
    13 Broy./Diag. 0.10E+00    5.3     0.00237228       -54.3988350997  2.43E-02
    14 Broy./Diag. 0.10E+00    5.3     0.00750469       -54.4118007015 -1.30E-02
    15 Broy./Diag. 0.10E+00    5.3     0.00453468       -54.4358657155 -2.41E-02
    16 Broy./Diag. 0.10E+00    5.3     0.00109658       -54.4451266798 -9.26E-03
    17 Broy./Diag. 0.10E+00    5.3     0.00256676       -54.4409103240  4.22E-03
    18 Broy./Diag. 0.10E+00    5.4     0.00100729       -54.4348236230  6.09E-03
    19 Broy./Diag. 0.10E+00    5.3     0.00018594       -54.4324736481  2.35E-03
    20 Broy./Diag. 0.10E+00    5.4     0.00092523       -54.4317093286  7.64E-04
    21 Broy./Diag. 0.10E+00    5.4     0.00052283       -54.4306001642  1.11E-03
    22 Broy./Diag. 0.10E+00    5.3     0.00010581       -54.4296621361  9.38E-04
    23 Broy./Diag. 0.10E+00    5.3     0.00020040       -54.4292179571  4.44E-04
    24 Broy./Diag. 0.10E+00    5.3     0.00019921       -54.4293732097 -1.55E-04
    25 Broy./Diag. 0.10E+00    5.3     0.00047529       -54.4305992701 -1.23E-03
    26 Broy./Diag. 0.10E+00    5.3     0.00054041       -54.4311990156 -6.00E-04
    27 Broy./Diag. 0.10E+00    5.3     0.00031026       -54.4309047231  2.94E-04
    28 Broy./Diag. 0.10E+00    5.3     0.00018023       -54.4308804905  2.42E-05
    29 Broy./Diag. 0.10E+00    5.3     0.00009136       -54.4308023969  7.81E-05
    30 Broy./Diag. 0.10E+00    5.3     0.00005145       -54.4305135218  2.89E-04
    31 Broy./Diag. 0.10E+00    5.3     0.00010882       -54.4304692080  4.43E-05
    32 Broy./Diag. 0.10E+00    5.3     0.00002128       -54.4304689634  2.45E-07
    33 Broy./Diag. 0.10E+00    5.3     0.00002847       -54.4303433368  1.26E-04
    34 Broy./Diag. 0.10E+00    5.3     0.00003720       -54.4303271086  1.62E-05
    35 Broy./Diag. 0.10E+00    5.3     0.00000995       -54.4303541922 -2.71E-05
    36 Broy./Diag. 0.10E+00    5.3     0.00001976       -54.4303519953  2.20E-06
    37 Broy./Diag. 0.10E+00    5.3     0.00002054       -54.4304197249 -6.77E-05
    38 Broy./Diag. 0.10E+00    5.3     0.00003011       -54.4304226627 -2.94E-06
    39 Broy./Diag. 0.10E+00    5.3     0.00004534       -54.4303861500  3.65E-05
    40 Broy./Diag. 0.10E+00    5.3     0.00010054       -54.4303586830  2.75E-05
    41 Broy./Diag. 0.10E+00    5.3     0.00014511       -54.4303637846 -5.10E-06
    42 Broy./Diag. 0.10E+00    5.3     0.00024939       -54.4303922824 -2.85E-05
    43 Broy./Diag. 0.10E+00    5.3     0.00042959       -54.4304023041 -1.00E-05
    44 Broy./Diag. 0.10E+00    5.4     0.00075549       -54.4303788994  2.34E-05
    45 Broy./Diag. 0.10E+00    5.4     0.00132249       -54.4303756835  3.22E-06
    46 Broy./Diag. 0.10E+00    5.3     0.00231272       -54.4303725418  3.14E-06
    47 Broy./Diag. 0.10E+00    5.3     0.00404910       -54.4303774546 -4.91E-06
    48 Broy./Diag. 0.10E+00    5.3     0.00708229       -54.4303937409 -1.63E-05
    49 Broy./Diag. 0.10E+00    5.3     0.01240062       -54.4304043434 -1.06E-05
    50 Broy./Diag. 0.10E+00    5.3     0.02171317       -54.4303708097  3.35E-05
    51 Broy./Diag. 0.10E+00    5.3     0.03775689       -54.4303907318 -1.99E-05
    52 Broy./Diag. 0.10E+00    5.3     0.06499733       -54.4303807138  1.00E-05
    53 Broy./Diag. 0.10E+00    5.3     0.10908959       -54.4297282547  6.52E-04
    54 Broy./Diag. 0.10E+00    5.3     0.17040902       -54.4281483793  1.58E-03
    55 Broy./Diag. 0.10E+00    5.3     0.22281879       -54.4239271835  4.22E-03
    56 Broy./Diag. 0.10E+00    5.3     0.31899848       -54.4134671294  1.05E-02
    57 Broy./Diag. 0.10E+00    5.3     0.39409680       -54.3927101552  2.08E-02
    58 Broy./Diag. 0.10E+00    5.4     0.34247260       -54.3646888239  2.80E-02
    59 Broy./Diag. 0.10E+00    5.3     0.23072234       -54.3383297872  2.64E-02
    60 Broy./Diag. 0.10E+00    5.3     0.15940435       -54.3190689291  1.93E-02
    61 Broy./Diag. 0.10E+00    5.3     0.13287866       -54.3083423737  1.07E-02
    62 Broy./Diag. 0.10E+00    5.4     0.10140538       -54.3024648524  5.88E-03
    63 Broy./Diag. 0.10E+00    5.3     0.07415796       -54.2991767386  3.29E-03
    64 Broy./Diag. 0.10E+00    5.3     0.05345987       -54.2973852460  1.79E-03
    65 Broy./Diag. 0.10E+00    5.3     0.04001064       -54.2967351823  6.50E-04
    66 Broy./Diag. 0.10E+00    5.3     0.04398070       -54.3054515175 -8.72E-03
    67 Broy./Diag. 0.10E+00    5.3     0.04708556       -54.3001819003  5.27E-03
    68 Broy./Diag. 0.10E+00    5.3     0.06802578       -54.3092965064 -9.11E-03

 *** WARNING in pw/ps_wavelet_methods.F:238 :: Density non-zero on the ***
 *** edges of the unit cell: wrong results in WAVELET solver           ***

    69 Broy./Diag. 0.10E+00    5.3     0.13001986       -54.3370163621 -2.77E-02

 *** WARNING in pw/ps_wavelet_methods.F:238 :: Density non-zero on the ***
 *** edges of the unit cell: wrong results in WAVELET solver           ***

    70 Broy./Diag. 0.10E+00    5.3     0.22636465       -54.3751156749 -3.81E-02

 *** WARNING in pw/ps_wavelet_methods.F:238 :: Density non-zero on the ***
 *** edges of the unit cell: wrong results in WAVELET solver           ***

    71 Broy./Diag. 0.10E+00    5.3     0.18991782       -54.4023754612 -2.73E-02

 *** WARNING in pw/ps_wavelet_methods.F:238 :: Density non-zero on the ***
 *** edges of the unit cell: wrong results in WAVELET solver           ***

    72 Broy./Diag. 0.10E+00    5.3     0.20418031       -54.6234930291 -2.21E-01

 *** WARNING in pw/ps_wavelet_methods.F:238 :: Density non-zero on the ***
 *** edges of the unit cell: wrong results in WAVELET solver           ***

    73 Broy./Diag. 0.10E+00    5.3     0.13565947       -54.7271128333 -1.04E-01
    74 Broy./Diag. 0.10E+00    5.3     0.18160280       -54.5083849753  2.19E-01
    75 Broy./Diag. 0.10E+00    5.3     0.19746365       -54.4340779927  7.43E-02
    76 Broy./Diag. 0.10E+00    5.3     0.07216102       -54.4036028408  3.05E-02
    77 Broy./Diag. 0.10E+00    5.3     0.03087761       -54.4525162531 -4.89E-02
    78 Broy./Diag. 0.10E+00    5.3     0.07765090       -54.4586874071 -6.17E-03
    79 Broy./Diag. 0.10E+00    5.4     0.20297747       -54.4782562293 -1.96E-02
    80 Broy./Diag. 0.10E+00    5.3     0.18464539       -54.5387169792 -6.05E-02
    81 Broy./Diag. 0.10E+00    5.4     0.06415684       -54.5927452060 -5.40E-02
    82 Broy./Diag. 0.10E+00    5.3     0.02402602       -54.6448350844 -5.21E-02
    83 Broy./Diag. 0.10E+00    5.3     0.01430895       -54.6795544970 -3.47E-02
    84 Broy./Diag. 0.10E+00    5.3     0.07515651       -54.5414044449  1.38E-01
    85 Broy./Diag. 0.10E+00    5.3     0.08448253       -54.4580613331  8.33E-02
    86 Broy./Diag. 0.10E+00    5.4     0.05687677       -54.4412741713  1.68E-02
    87 Broy./Diag. 0.10E+00    5.3     0.02773600       -54.4141636021  2.71E-02
    88 Broy./Diag. 0.10E+00    5.3     0.01807566       -54.4028061982  1.14E-02
    89 Broy./Diag. 0.10E+00    5.3     0.02886782       -54.4209406496 -1.81E-02
    90 Broy./Diag. 0.10E+00    5.3     0.00864434       -54.4526841446 -3.17E-02
    91 Broy./Diag. 0.10E+00    5.3     0.00901216       -54.4850261898 -3.23E-02
    92 Broy./Diag. 0.10E+00    5.3     0.00141613       -54.4936564917 -8.63E-03
    93 Broy./Diag. 0.10E+00    5.3     0.00930396       -54.4768425637  1.68E-02
    94 Broy./Diag. 0.10E+00    5.3     0.00751693       -54.4650477193  1.18E-02
    95 Broy./Diag. 0.10E+00    5.3     0.01435069       -54.4651615862 -1.14E-04
    96 Broy./Diag. 0.10E+00    5.3     0.00596016       -54.4578014945  7.36E-03
    97 Broy./Diag. 0.10E+00    5.4     0.00139720       -54.4517930011  6.01E-03
    98 Broy./Diag. 0.10E+00    5.3     0.01044987       -54.4492139546  2.58E-03
    99 Broy./Diag. 0.10E+00    5.3     0.00406719       -54.4442576407  4.96E-03
   100 Broy./Diag. 0.10E+00    5.3     0.00349181       -54.4395786569  4.68E-03
   101 Broy./Diag. 0.10E+00    5.3     0.00184253       -54.4373719018  2.21E-03
   102 Broy./Diag. 0.10E+00    5.3     0.00454092       -54.4363061647  1.07E-03
   103 Broy./Diag. 0.10E+00    5.3     0.01244666       -54.4360981084  2.08E-04
   104 Broy./Diag. 0.10E+00    5.3     0.02181780       -54.4356036534  4.94E-04
   105 Broy./Diag. 0.10E+00    5.3     0.04062924       -54.4353986081  2.05E-04
   106 Broy./Diag. 0.10E+00    5.3     0.07030815       -54.4354295940 -3.10E-05
   107 Broy./Diag. 0.10E+00    5.3     0.11860064       -54.4349926116  4.37E-04
   108 Broy./Diag. 0.10E+00    5.3     0.18644398       -54.4334841707  1.51E-03
   109 Broy./Diag. 0.10E+00    5.3     0.24660661       -54.4288833780  4.60E-03
   110 Broy./Diag. 0.10E+00    5.3     0.30637964       -54.4172977679  1.16E-02
   111 Broy./Diag. 0.10E+00    5.3     0.38613882       -54.3961465077  2.12E-02
   112 Broy./Diag. 0.10E+00    5.3     0.34087780       -54.3689076786  2.72E-02
   113 Broy./Diag. 0.10E+00    5.3     0.23748214       -54.3445818211  2.43E-02
   114 Broy./Diag. 0.10E+00    5.4     0.14408231       -54.3269606245  1.76E-02
   115 Broy./Diag. 0.10E+00    5.3     0.11863510       -54.3176449191  9.32E-03
   116 Broy./Diag. 0.10E+00    5.3     0.09251497       -54.3129644349  4.68E-03
   117 Broy./Diag. 0.10E+00    5.3     0.06950218       -54.3108841646  2.08E-03
   118 Broy./Diag. 0.10E+00    5.4     0.05262773       -54.3114604856 -5.76E-04
   119 Broy./Diag. 0.10E+00    5.4     0.04673289       -54.3206268709 -9.17E-03
   120 Broy./Diag. 0.10E+00    5.3     0.04118595       -54.3196608860  9.66E-04
   121 Broy./Diag. 0.10E+00    5.3     0.05438333       -54.3489154572 -2.93E-02
   122 Broy./Diag. 0.10E+00    5.3     0.08880674       -54.4029921686 -5.41E-02

 *** WARNING in pw/ps_wavelet_methods.F:238 :: Density non-zero on the ***
 *** edges of the unit cell: wrong results in WAVELET solver           ***

   123 Broy./Diag. 0.10E+00    5.3     0.17712267       -54.5281956500 -1.25E-01

 *** WARNING in pw/ps_wavelet_methods.F:238 :: Density non-zero on the ***
 *** edges of the unit cell: wrong results in WAVELET solver           ***

   124 Broy./Diag. 0.10E+00    5.3     0.24123285       -54.5980565678 -6.99E-02

 *** WARNING in pw/ps_wavelet_methods.F:238 :: Density non-zero on the ***
 *** edges of the unit cell: wrong results in WAVELET solver           ***

   125 Broy./Diag. 0.10E+00    5.3     0.21108456       -54.4988871833  9.92E-02
   126 Broy./Diag. 0.10E+00    5.3     0.13211636       -54.3742948295  1.25E-01
   127 Broy./Diag. 0.10E+00    5.3     0.06542253       -54.3859164713 -1.16E-02

 *** WARNING in pw/ps_wavelet_methods.F:238 :: Density non-zero on the ***
 *** edges of the unit cell: wrong results in WAVELET solver           ***

   128 Broy./Diag. 0.10E+00    5.3     0.02419957       -54.5607083788 -1.75E-01

 *** WARNING in pw/ps_wavelet_methods.F:238 :: Density non-zero on the ***
 *** edges of the unit cell: wrong results in WAVELET solver           ***

   129 Broy./Diag. 0.10E+00    5.4     0.16097167       -54.8276849444 -2.67E-01

 *** WARNING in pw/ps_wavelet_methods.F:238 :: Density non-zero on the ***
 *** edges of the unit cell: wrong results in WAVELET solver           ***

   130 Broy./Diag. 0.10E+00    5.3     0.20427947       -54.9198560652 -9.22E-02

 *** WARNING in pw/ps_wavelet_methods.F:238 :: Density non-zero on the ***
 *** edges of the unit cell: wrong results in WAVELET solver           ***

   131 Broy./Diag. 0.10E+00    5.3     0.38366463       -54.9023812114  1.75E-02

 *** WARNING in pw/ps_wavelet_methods.F:238 :: Density non-zero on the ***
 *** edges of the unit cell: wrong results in WAVELET solver           ***

   132 Broy./Diag. 0.10E+00    5.4     0.36538127       -54.9474682992 -4.51E-02
   133 Broy./Diag. 0.10E+00    5.3     0.10739427       -54.6422796968  3.05E-01
   134 Broy./Diag. 0.10E+00    5.3     0.07127350       -54.8018598377 -1.60E-01
   135 Broy./Diag. 0.10E+00    5.3     0.12247741       -54.8509927370 -4.91E-02
   136 Broy./Diag. 0.10E+00    5.3     0.22518443       -54.8669609422 -1.60E-02
   137 Broy./Diag. 0.10E+00    5.3     0.21680660       -54.8958519520 -2.89E-02
   138 Broy./Diag. 0.10E+00    5.3     0.14399165       -54.8703874889  2.55E-02
   139 Broy./Diag. 0.10E+00    5.3     0.13568135       -54.8646779480  5.71E-03
   140 Broy./Diag. 0.10E+00    5.3     0.12768711       -54.8962896148 -3.16E-02
   141 Broy./Diag. 0.10E+00    5.3     0.09063656       -54.8013498630  9.49E-02
   142 Broy./Diag. 0.10E+00    5.3     0.16472048       -54.7010053911  1.00E-01
   143 Broy./Diag. 0.10E+00    5.5     0.29681835       -54.6155202618  8.55E-02
   144 Broy./Diag. 0.10E+00    5.4     0.31980138       -54.6110254877  4.49E-03
   145 Broy./Diag. 0.10E+00    5.3     0.23338802       -54.6164573158 -5.43E-03
   146 Broy./Diag. 0.10E+00    5.3     0.15301321       -54.6403277347 -2.39E-02
   147 Broy./Diag. 0.10E+00    5.3     0.10517652       -54.6578179653 -1.75E-02
   148 Broy./Diag. 0.10E+00    5.3     0.01658939       -54.6605910629 -2.77E-03
   149 Broy./Diag. 0.10E+00    5.3     0.11650618       -54.7305325505 -6.99E-02
   150 Broy./Diag. 0.10E+00    5.3     0.16100982       -54.8546495112 -1.24E-01
   151 Broy./Diag. 0.10E+00    5.3     0.22247254       -54.9126073703 -5.80E-02
   152 Broy./Diag. 0.10E+00    5.3     0.27209960       -54.9105827482  2.02E-03
   153 Broy./Diag. 0.10E+00    5.3     0.25461508       -54.9239603403 -1.34E-02
   154 Broy./Diag. 0.10E+00    5.3     0.17114812       -54.9250558265 -1.10E-03
   155 Broy./Diag. 0.10E+00    5.3     0.02392698       -54.8889088841  3.61E-02
   156 Broy./Diag. 0.10E+00    5.3     0.02730690       -54.8387531756  5.02E-02
   157 Broy./Diag. 0.10E+00    5.4     0.00326960       -54.8002455523  3.85E-02
   158 Broy./Diag. 0.10E+00    5.3     0.04724486       -54.6756410627  1.25E-01
   159 Broy./Diag. 0.10E+00    5.3     0.07164461       -54.6342988985  4.13E-02
   160 Broy./Diag. 0.10E+00    5.4     0.15529706       -54.6263567890  7.94E-03
   161 Broy./Diag. 0.10E+00    5.3     0.29646661       -54.6222665934  4.09E-03
   162 Broy./Diag. 0.10E+00    5.3     0.27441571       -54.6634781975 -4.12E-02
   163 Broy./Diag. 0.10E+00    5.4     0.11079094       -54.6423672752  2.11E-02
   164 Broy./Diag. 0.10E+00    5.3     0.21447879       -54.6566152185 -1.42E-02
   165 Broy./Diag. 0.10E+00    5.3     0.40252823       -54.6301311831  2.65E-02
   166 Broy./Diag. 0.10E+00    5.3     0.31015724       -54.6320358011 -1.90E-03
   167 Broy./Diag. 0.10E+00    5.3     0.24207663       -54.6484121876 -1.64E-02
   168 Broy./Diag. 0.10E+00    5.3     0.20098731       -54.6662474228 -1.78E-02
   169 Broy./Diag. 0.10E+00    5.4     0.20545353       -54.6173367954  4.89E-02
   170 Broy./Diag. 0.10E+00    5.3     0.18242308       -54.5140235150  1.03E-01
   171 Broy./Diag. 0.10E+00    5.3     0.12175570       -54.4657512041  4.83E-02
   172 Broy./Diag. 0.10E+00    5.3     0.07599207       -54.4418985536  2.39E-02
   173 Broy./Diag. 0.10E+00    5.3     0.10387741       -54.5058099700 -6.39E-02
   174 Broy./Diag. 0.10E+00    5.3     0.12130871       -54.5276599261 -2.18E-02
   175 Broy./Diag. 0.10E+00    5.3     0.30771928       -54.4972509129  3.04E-02
   176 Broy./Diag. 0.10E+00    5.3     0.30416253       -54.5130132383 -1.58E-02
   177 Broy./Diag. 0.10E+00    5.3     0.30671205       -54.5009055818  1.21E-02
   178 Broy./Diag. 0.10E+00    5.3     0.14159762       -54.5303618135 -2.95E-02
   179 Broy./Diag. 0.10E+00    5.3     0.06201579       -54.5457638946 -1.54E-02
   180 Broy./Diag. 0.10E+00    5.4     0.09318333       -54.5480825416 -2.32E-03
   181 Broy./Diag. 0.10E+00    5.3     0.07070714       -54.6094579237 -6.14E-02
   182 Broy./Diag. 0.10E+00    5.3     0.06611296       -54.6483656923 -3.89E-02
   183 Broy./Diag. 0.10E+00    5.4     0.13197179       -54.8297358061 -1.81E-01
   184 Broy./Diag. 0.10E+00    5.3     0.05708637       -54.6915293414  1.38E-01
   185 Broy./Diag. 0.10E+00    5.3     0.05280616       -54.6879958251  3.53E-03
   186 Broy./Diag. 0.10E+00    5.3     0.26452626       -54.7731143550 -8.51E-02
   187 Broy./Diag. 0.10E+00    5.3     0.40909589       -54.8749907378 -1.02E-01
   188 Broy./Diag. 0.10E+00    5.3     0.27861088       -54.8302162477  4.48E-02
   189 Broy./Diag. 0.10E+00    5.3     0.16780225       -54.7616094545  6.86E-02
   190 Broy./Diag. 0.10E+00    5.3     0.14099453       -54.7063190676  5.53E-02
   191 Broy./Diag. 0.10E+00    5.3     0.28934167       -54.7109560987 -4.64E-03
   192 Broy./Diag. 0.10E+00    5.3     0.35170595       -54.7251588309 -1.42E-02
   193 Broy./Diag. 0.10E+00    5.4     0.27925634       -54.7015932890  2.36E-02
   194 Broy./Diag. 0.10E+00    5.4     0.21205929       -54.7468432170 -4.52E-02
   195 Broy./Diag. 0.10E+00    5.3     0.02382217       -54.7271408856  1.97E-02
   196 Broy./Diag. 0.10E+00    5.3     0.07445968       -54.7212176512  5.92E-03
   197 Broy./Diag. 0.10E+00    5.3     0.14717632       -54.7065508384  1.47E-02
   198 Broy./Diag. 0.10E+00    5.3     0.20678110       -54.7273974416 -2.08E-02
   199 Broy./Diag. 0.10E+00    5.3     0.32859339       -54.7268023847  5.95E-04
   200 Broy./Diag. 0.10E+00    5.3     0.37929244       -54.7266785583  1.24E-04
   201 Broy./Diag. 0.10E+00    5.3     0.18545027       -54.6888835223  3.78E-02
   202 Broy./Diag. 0.10E+00    5.3     0.02114987       -54.6325140875  5.64E-02
   203 Broy./Diag. 0.10E+00    5.3     0.13125743       -54.5995940411  3.29E-02
   204 Broy./Diag. 0.10E+00    5.3     0.27861297       -54.5839822250  1.56E-02
   205 Broy./Diag. 0.10E+00    5.3     0.38883295       -54.6154859204 -3.15E-02
   206 Broy./Diag. 0.10E+00    5.3     0.34624433       -54.6080079925  7.48E-03
   207 Broy./Diag. 0.10E+00    5.3     0.36919362       -54.5889354416  1.91E-02
   208 Broy./Diag. 0.10E+00    5.4     0.25722914       -54.5544543845  3.45E-02
   209 Broy./Diag. 0.10E+00    5.3     0.12596798       -54.5289758885  2.55E-02
   210 Broy./Diag. 0.10E+00    5.3     0.01553403       -54.5288599981  1.16E-04
   211 Broy./Diag. 0.10E+00    5.3     0.15053235       -54.5585449738 -2.97E-02
   212 Broy./Diag. 0.10E+00    5.3     0.25701646       -54.6075900391 -4.90E-02
   213 Broy./Diag. 0.10E+00    5.3     0.32626761       -54.6295606322 -2.20E-02
   214 Broy./Diag. 0.10E+00    5.4     0.30849193       -54.6132316408  1.63E-02
   215 Broy./Diag. 0.10E+00    5.3     0.32410405       -54.6020610070  1.12E-02
   216 Broy./Diag. 0.10E+00    5.3     0.16656273       -54.5633972080  3.87E-02
   217 Broy./Diag. 0.10E+00    5.3     0.04277143       -54.5148976539  4.85E-02
   218 Broy./Diag. 0.10E+00    5.5     0.06363184       -54.4927003730  2.22E-02
   219 Broy./Diag. 0.10E+00    5.3     0.10928108       -54.4971760424 -4.48E-03
   220 Broy./Diag. 0.10E+00    5.3     0.13417592       -54.5048085150 -7.63E-03
   221 Broy./Diag. 0.10E+00    5.3     0.21864982       -54.4925208679  1.23E-02
   222 Broy./Diag. 0.10E+00    5.3     0.33452657       -54.4545131938  3.80E-02
   223 Broy./Diag. 0.10E+00    5.3     0.35176345       -54.4810649980 -2.66E-02
   224 Broy./Diag. 0.10E+00    5.3     0.11183106       -54.4997577315 -1.87E-02
   225 Broy./Diag. 0.10E+00    5.3     0.03013452       -54.5099031863 -1.01E-02
   226 Broy./Diag. 0.10E+00    5.3     0.13437743       -54.5396604492 -2.98E-02
   227 Broy./Diag. 0.10E+00    5.3     0.18597677       -54.5659359156 -2.63E-02
   228 Broy./Diag. 0.10E+00    5.3     0.20875316       -54.5747329301 -8.80E-03
   229 Broy./Diag. 0.10E+00    5.3     0.32653050       -54.5754977550 -7.65E-04
   230 Broy./Diag. 0.10E+00    5.3     0.34883342       -54.6211500995 -4.57E-02
   231 Broy./Diag. 0.10E+00    5.3     0.18221129       -54.6083004225  1.28E-02
   232 Broy./Diag. 0.10E+00    5.3     0.02886825       -54.5164463230  9.19E-02
   233 Broy./Diag. 0.10E+00    5.3     0.14865331       -54.4945563680  2.19E-02
   234 Broy./Diag. 0.10E+00    5.3     0.20276711       -54.5031771165 -8.62E-03
   235 Broy./Diag. 0.10E+00    5.3     0.24275066       -54.4975722181  5.60E-03
   236 Broy./Diag. 0.10E+00    5.3     0.25083499       -54.4763206803  2.13E-02
   237 Broy./Diag. 0.10E+00    5.3     0.33911657       -54.4592367756  1.71E-02
   238 Broy./Diag. 0.10E+00    5.3     0.21396298       -54.4835308862 -2.43E-02
   239 Broy./Diag. 0.10E+00    5.3     0.02230311       -54.5048306140 -2.13E-02
   240 Broy./Diag. 0.10E+00    5.3     0.08595560       -54.5491314564 -4.43E-02
   241 Broy./Diag. 0.10E+00    5.3     0.14063709       -54.5854293500 -3.63E-02
   242 Broy./Diag. 0.10E+00    5.4     0.18123559       -54.5994204182 -1.40E-02
   243 Broy./Diag. 0.10E+00    5.3     0.28855462       -54.5971204251  2.30E-03
   244 Broy./Diag. 0.10E+00    5.4     0.35654533       -54.6036074272 -6.49E-03
   245 Broy./Diag. 0.10E+00    5.3     0.27551797       -54.6107749439 -7.17E-03
   246 Broy./Diag. 0.10E+00    5.3     0.03824538       -54.5502426244  6.05E-02
   247 Broy./Diag. 0.10E+00    5.3     0.10451198       -54.5259812128  2.43E-02
   248 Broy./Diag. 0.10E+00    5.4     0.18320742       -54.5342257012 -8.24E-03
   249 Broy./Diag. 0.10E+00    5.3     0.22370223       -54.5433757150 -9.15E-03
   250 Broy./Diag. 0.10E+00    5.3     0.24631447       -54.5284103376  1.50E-02
   251 Broy./Diag. 0.10E+00    5.3     0.36981498       -54.4932611400  3.51E-02
   252 Broy./Diag. 0.10E+00    5.3     0.27572920       -54.5059460147 -1.27E-02
   253 Broy./Diag. 0.10E+00    5.3     0.02642550       -54.5140995243 -8.15E-03
   254 Broy./Diag. 0.10E+00    5.3     0.14473946       -54.5526713729 -3.86E-02
   255 Broy./Diag. 0.10E+00    5.3     0.28107280       -54.5935444679 -4.09E-02
   256 Broy./Diag. 0.10E+00    5.3     0.32098515       -54.6143109290 -2.08E-02
   257 Broy./Diag. 0.10E+00    5.3     0.31205675       -54.6050135564  9.30E-03
   258 Broy./Diag. 0.10E+00    5.3     0.30571724       -54.5825054896  2.25E-02
   259 Broy./Diag. 0.10E+00    5.4     0.15240104       -54.5572962985  2.52E-02
   260 Broy./Diag. 0.10E+00    5.3     0.05777135       -54.5361108718  2.12E-02
   261 Broy./Diag. 0.10E+00    5.3     0.10625439       -54.5232094067  1.29E-02
   262 Broy./Diag. 0.10E+00    5.3     0.24057285       -54.5444080924 -2.12E-02
   263 Broy./Diag. 0.10E+00    5.3     0.33741943       -54.5679707602 -2.36E-02
   264 Broy./Diag. 0.10E+00    5.3     0.32239430       -54.5631307468  4.84E-03
   265 Broy./Diag. 0.10E+00    5.4     0.34834738       -54.5543661644  8.76E-03
   266 Broy./Diag. 0.10E+00    5.3     0.16158860       -54.5520205200  2.35E-03
   267 Broy./Diag. 0.10E+00    5.3     0.07881908       -54.5485599844  3.46E-03
   268 Broy./Diag. 0.10E+00    5.4     0.26839182       -54.5869862263 -3.84E-02
   269 Broy./Diag. 0.10E+00    5.3     0.36324064       -54.6244243359 -3.74E-02
   270 Broy./Diag. 0.10E+00    5.3     0.35121456       -54.6376178053 -1.32E-02
   271 Broy./Diag. 0.10E+00    5.3     0.31172090       -54.6212395104  1.64E-02
   272 Broy./Diag. 0.10E+00    5.3     0.13571043       -54.5914841677  2.98E-02
   273 Broy./Diag. 0.10E+00    5.4     0.04328555       -54.5775830878  1.39E-02
   274 Broy./Diag. 0.10E+00    5.3     0.12994221       -54.5714802257  6.10E-03
   275 Broy./Diag. 0.10E+00    5.3     0.27116843       -54.6034013530 -3.19E-02
   276 Broy./Diag. 0.10E+00    5.3     0.36619959       -54.6296283509 -2.62E-02
   277 Broy./Diag. 0.10E+00    5.3     0.36174128       -54.6334007622 -3.77E-03
   278 Broy./Diag. 0.10E+00    5.3     0.31496062       -54.6303262520  3.07E-03
   279 Broy./Diag. 0.10E+00    5.3     0.02186352       -54.6116694647  1.87E-02
   280 Broy./Diag. 0.10E+00    5.3     0.32289791       -54.6240469876 -1.24E-02
   281 Broy./Diag. 0.10E+00    5.3     0.39140120       -54.6808938548 -5.68E-02
   282 Broy./Diag. 0.10E+00    5.3     0.42099049       -54.7180176295 -3.71E-02
   283 Broy./Diag. 0.10E+00    5.3     0.33518712       -54.7117982372  6.22E-03
   284 Broy./Diag. 0.10E+00    5.3     0.16252908       -54.6730069358  3.88E-02
   285 Broy./Diag. 0.10E+00    5.3     0.11487671       -54.6274755010  4.55E-02
   286 Broy./Diag. 0.10E+00    5.3     0.11458512       -54.6202693819  7.21E-03
   287 Broy./Diag. 0.10E+00    5.3     0.13751855       -54.6218157831 -1.55E-03
   288 Broy./Diag. 0.10E+00    5.3     0.22568037       -54.6073690074  1.44E-02
   289 Broy./Diag. 0.10E+00    5.4     0.28132766       -54.5991120020  8.26E-03
   290 Broy./Diag. 0.10E+00    5.3     0.26547890       -54.5714951523  2.76E-02
   291 Broy./Diag. 0.10E+00    5.3     0.19264573       -54.5381029405  3.34E-02
   292 Broy./Diag. 0.10E+00    5.4     0.15404069       -54.5075898378  3.05E-02
   293 Broy./Diag. 0.10E+00    5.4     0.00988318       -54.5074114550  1.78E-04
   294 Broy./Diag. 0.10E+00    5.3     0.00458765       -54.5103363102 -2.92E-03
   295 Broy./Diag. 0.10E+00    5.3     0.04070257       -54.5074597983  2.88E-03
   296 Broy./Diag. 0.10E+00    5.3     0.11863596       -54.5087475099 -1.29E-03
   297 Broy./Diag. 0.10E+00    5.3     0.20135041       -54.5027124769  6.04E-03
   298 Broy./Diag. 0.10E+00    5.3     0.26465935       -54.4690424142  3.37E-02
   299 Broy./Diag. 0.10E+00    5.3     0.25795577       -54.4676625730  1.38E-03
   300 Broy./Diag. 0.10E+00    5.3     0.13274463       -54.7167893147 -2.49E-01
   301 Broy./Diag. 0.10E+00    5.3     0.41999315       -54.6226172527  9.42E-02
   302 Broy./Diag. 0.10E+00    5.3     0.46163983       -54.6319736721 -9.36E-03
   303 Broy./Diag. 0.10E+00    5.3     0.39702602       -54.6154593319  1.65E-02
   304 Broy./Diag. 0.10E+00    5.3     0.20195394       -54.6495460378 -3.41E-02
   305 Broy./Diag. 0.10E+00    5.3     0.04902515       -54.6206434455  2.89E-02
   306 Broy./Diag. 0.10E+00    5.3     0.01671741       -54.6163065320  4.34E-03
   307 Broy./Diag. 0.10E+00    5.3     0.21970824       -54.5735575562  4.27E-02
   308 Broy./Diag. 0.10E+00    5.3     0.17747495       -54.5543687593  1.92E-02
[...]
   418 Broy./Diag. 0.10E+00    5.4     0.11704193       -54.4068856580  6.13E-03
   419 Broy./Diag. 0.10E+00    5.3     0.12473259       -54.4064257656  4.60E-04
   420 Broy./Diag. 0.10E+00    5.3     0.12095621       -54.3975273583  8.90E-03
   421 Broy./Diag. 0.10E+00    5.3     0.15677512       -54.3875194407  1.00E-02
   422 Broy./Diag. 0.10E+00    5.3     0.20432644       -54.3720778088  1.54E-02
   423 Broy./Diag. 0.10E+00    5.3     0.21804265       -54.3537387462  1.83E-02
   424 Broy./Diag. 0.10E+00    5.3     0.22021393       -54.3433318695  1.04E-02
   425 Broy./Diag. 0.10E+00    5.4     0.19001433       -54.3656275622 -2.23E-02
   426 Broy./Diag. 0.10E+00    5.3     0.10198862       -54.4360817836 -7.05E-02
   427 Broy./Diag. 0.10E+00    5.3     0.07959468       -54.4895110740 -5.34E-02
   428 Broy./Diag. 0.10E+00    5.3     0.04221811       -54.5397744636 -5.03E-02
   429 Broy./Diag. 0.10E+00    5.3     0.06231051       -54.6122618429 -7.25E-02
   430 Broy./Diag. 0.10E+00    5.3     0.13629089       -54.6399091051 -2.76E-02
   431 Broy./Diag. 0.10E+00    5.3     0.13287821       -54.5833617291  5.65E-02
   432 Broy./Diag. 0.10E+00    5.3     0.04829400       -54.4916675733  9.17E-02
   433 Broy./Diag. 0.10E+00    5.3     0.12254387       -54.4657968646  2.59E-02
   434 Broy./Diag. 0.10E+00    5.3     0.17306770       -54.4693006358 -3.50E-03
   435 Broy./Diag. 0.10E+00    5.4     0.25162425       -54.4622481660  7.05E-03
   436 Broy./Diag. 0.10E+00    5.3     0.32574548       -54.4670566837 -4.81E-03
   437 Broy./Diag. 0.10E+00    5.3     0.27569565       -54.4685622348 -1.51E-03
   438 Broy./Diag. 0.10E+00    5.4     0.09284378       -54.4893203574 -2.08E-02
   439 Broy./Diag. 0.10E+00    5.3     0.41637306       -54.4885010306  8.19E-04
   440 Broy./Diag. 0.10E+00    5.3     0.34748202       -54.5116513338 -2.32E-02
   441 Broy./Diag. 0.10E+00    5.3     0.35730826       -54.5564303048 -4.48E-02
   442 Broy./Diag. 0.10E+00    5.4     0.25044080       -54.5767654622 -2.03E-02
   443 Broy./Diag. 0.10E+00    5.3     0.17794696       -54.5618654313  1.49E-02
   444 Broy./Diag. 0.10E+00    5.3     0.14238798       -54.4890236951  7.28E-02
   445 Broy./Diag. 0.10E+00    5.3     0.14799405       -54.4480332171  4.10E-02
   446 Broy./Diag. 0.10E+00    5.3     0.11851871       -54.4527785204 -4.75E-03
   447 Broy./Diag. 0.10E+00    5.3     0.03865692       -54.4243986518  2.84E-02
   448 Broy./Diag. 0.10E+00    5.3     0.09401026       -54.3964309595  2.80E-02
   449 Broy./Diag. 0.10E+00    5.3     0.11728657       -54.4002382607 -3.81E-03
   450 Broy./Diag. 0.10E+00    5.3     0.17408105       -54.4071609375 -6.92E-03
   451 Broy./Diag. 0.10E+00    5.3     0.26239606       -54.4199117765 -1.28E-02
   452 Broy./Diag. 0.10E+00    5.3     0.28663423       -54.4216084485 -1.70E-03
   453 Broy./Diag. 0.10E+00    5.3     0.22821687       -54.4132806685  8.33E-03
   454 Broy./Diag. 0.10E+00    5.3     0.20364324       -54.3966661412  1.66E-02
   455 Broy./Diag. 0.10E+00    5.3     0.17378337       -54.3659844167  3.07E-02
   456 Broy./Diag. 0.10E+00    5.3     0.14161561       -54.3660678468 -8.34E-05
   457 Broy./Diag. 0.10E+00    5.3     0.11460985       -54.3685713616 -2.50E-03
   458 Broy./Diag. 0.10E+00    5.3     0.08870253       -54.3673375482  1.23E-03
   459 Broy./Diag. 0.10E+00    5.4     0.05686761       -54.3590322067  8.31E-03
   460 Broy./Diag. 0.10E+00    5.3     0.03061622       -54.3491156207  9.92E-03
   461 Broy./Diag. 0.10E+00    5.3     0.07422588       -54.3392870804  9.83E-03
   462 Broy./Diag. 0.10E+00    5.3     0.29854114       -54.3336777318  5.61E-03
   463 Broy./Diag. 0.10E+00    5.3     0.39537219       -54.3756140532 -4.19E-02
   464 Broy./Diag. 0.10E+00    5.3     0.34119820       -54.3925081825 -1.69E-02
   465 Broy./Diag. 0.10E+00    5.3     0.33056442       -54.3545316052  3.80E-02
   466 Broy./Diag. 0.10E+00    5.3     0.20941019       -54.3419407774  1.26E-02
   467 Broy./Diag. 0.10E+00    5.3     0.04877019       -54.3735337199 -3.16E-02
   468 Broy./Diag. 0.10E+00    5.3     0.24354626       -54.4695489949 -9.60E-02
   469 Broy./Diag. 0.10E+00    5.3     0.38073695       -54.4981370989 -2.86E-02
   470 Broy./Diag. 0.10E+00    5.3     0.29323176       -54.5123263424 -1.42E-02
   471 Broy./Diag. 0.10E+00    5.3     0.31219597       -54.4939744338  1.84E-02
   472 Broy./Diag. 0.10E+00    5.3     0.18292050       -54.4767780402  1.72E-02
   473 Broy./Diag. 0.10E+00    5.3     0.02132097       -54.4580389238  1.87E-02
   474 Broy./Diag. 0.10E+00    5.3     0.09853923       -54.4759566500 -1.79E-02
   475 Broy./Diag. 0.10E+00    5.3     0.27584979       -54.4632742600  1.27E-02
   476 Broy./Diag. 0.10E+00    5.3     0.33786871       -54.4871366979 -2.39E-02
   477 Broy./Diag. 0.10E+00    5.3     0.38331138       -54.4897633441 -2.63E-03
   478 Broy./Diag. 0.10E+00    5.3     0.31973832       -54.4823682603  7.40E-03
   479 Broy./Diag. 0.10E+00    5.3     0.05701188       -54.4890562347 -6.69E-03
   480 Broy./Diag. 0.10E+00    5.3     0.29955506       -54.4906834214 -1.63E-03
   481 Broy./Diag. 0.10E+00    5.3     0.48118509       -54.5322516077 -4.16E-02
   482 Broy./Diag. 0.10E+00    5.3     0.38960960       -54.5939380618 -6.17E-02
   483 Broy./Diag. 0.10E+00    5.3     0.30544810       -54.6260715779 -3.21E-02
   484 Broy./Diag. 0.10E+00    5.3     0.12927959       -54.6185132122  7.56E-03
   485 Broy./Diag. 0.10E+00    5.3     0.02356158       -54.5538317768  6.47E-02
   486 Broy./Diag. 0.10E+00    5.4     0.13676305       -54.5541555078 -3.24E-04
   487 Broy./Diag. 0.10E+00    5.3     0.43750450       -54.5150121263  3.91E-02
   488 Broy./Diag. 0.10E+00    5.3     0.36217423       -54.5945597603 -7.95E-02
   489 Broy./Diag. 0.10E+00    5.3     0.36358714       -54.6126425966 -1.81E-02
   490 Broy./Diag. 0.10E+00    5.4     0.22061317       -54.6018078723  1.08E-02
   491 Broy./Diag. 0.10E+00    5.4     0.05274026       -54.5820989135  1.97E-02
   492 Broy./Diag. 0.10E+00    5.4     0.46278693       -54.5678922521  1.42E-02
   493 Broy./Diag. 0.10E+00    5.5     0.44761198       -54.6557220513 -8.78E-02
   494 Broy./Diag. 0.10E+00    5.3     0.38020057       -54.8063825060 -1.51E-01
   495 Broy./Diag. 0.10E+00    5.3     0.21671027       -54.9228356048 -1.16E-01
   496 Broy./Diag. 0.10E+00    5.3     0.10439141       -54.9565937137 -3.38E-02
   497 Broy./Diag. 0.10E+00    5.3     0.10353092       -54.8795989853  7.70E-02
   498 Broy./Diag. 0.10E+00    5.3     0.11975874       -54.9143665701 -3.48E-02
   499 Broy./Diag. 0.10E+00    5.4     0.06427090       -54.5730399443  3.41E-01
   500 Broy./Diag. 0.10E+00    5.3     0.12419981       -54.5328003273  4.02E-02

  Leaving inner SCF loop after reaching   500 steps.


  Electronic density on regular grids:         -6.1264080186        1.8735919814
  Core density on regular grids:                1.0000000000       -7.0000000000
  Hard and soft densities (Lebedev):          -10.4140782886       -8.5333411335
  Total Rho_soft + Rho1_hard - Rho1_soft       -8.0071451737
  Total charge density (r-space):              -7.0071451737
  Total Rho_soft + Rho0_soft (g-space):        -0.0071451871

  Overlap energy of the core charge distribution:               0.00000008866015
  Self energy of the core charge distribution:                -49.21005070205399
  Core Hamiltonian energy:                                     -6.86794052280599
  Hartree energy:                                              18.04500999402235
  Exchange-correlation energy:                                 -2.16041924853628
  Hartree-Fock Exchange energy:                                -1.69312074396128

  GAPW| Exc from hard and soft atomic rho1:                    -3.13764588505253
  GAPW| local Eh = 1 center integrals:                         -9.50863330761909

  Total energy:                                               -54.53280032734667

 *******************************************************************************
 *   ___                                                                       *
 *  /   \                                                                      *
 * [ABORT]                                                                     *
 *  \___/     SCF run NOT converged. To continue the calculation regardless,   *
 *    |             please set the keyword IGNORE_CONVERGENCE_FAILURE.         *
 *  O/|                                                                        *
 * /| |                                                                        *
 * / \                                                            qs_scf.F:611 *
 *******************************************************************************


 ===== Routine Calling Stack ===== 

            3 scf_env_do_scf
            2 qs_energies
            1 CP2K

 *******************************************************************************
 *   ___                                                                       *
 *  /   \                                                                      *
 * [ABORT]                                                                     *
 *  \___/     SCF run NOT converged. To continue the calculation regardless,   *
 *    |             please set the keyword IGNORE_CONVERGENCE_FAILURE.         *
 *  O/|                                                                        *
 * /| |                                                                        *
 * / \                                                            qs_scf.F:611 *
 *******************************************************************************


 ===== Routine Calling Stack ===== 

            3 scf_env_do_scf
            2 qs_energies
            1 CP2K

 *******************************************************************************
 *   ___                                                                       *
 *  /   \                                                                      *
 * [ABORT]                                                                     *
 *  \___/     SCF run NOT converged. To continue the calculation regardless,   *
 *    |             please set the keyword IGNORE_CONVERGENCE_FAILURE.         *
 *  O/|                                                                        *
 * /| |                                                                        *
 * / \                                                            qs_scf.F:611 *
 *******************************************************************************


 ===== Routine Calling Stack ===== 

            3 scf_env_do_scf
            2 qs_energies
            1 CP2K

 *******************************************************************************
 *   ___                                                                       *
 *  /   \                                                                      *
 * [ABORT]                                                                     *
 *  \___/     SCF run NOT converged. To continue the calculation regardless,   *
 *    |             please set the keyword IGNORE_CONVERGENCE_FAILURE.         *
 *  O/|                                                                        *
 * /| |                                                                        *
 * / \                                                            qs_scf.F:611 *
 *******************************************************************************


 ===== Routine Calling Stack ===== 

            3 scf_env_do_scf
            2 qs_energies
            1 CP2K

 *******************************************************************************
 *   ___                                                                       *
 *  /   \                                                                      *
 * [ABORT]                                                                     *
 *  \___/     SCF run NOT converged. To continue the calculation regardless,   *
 *    |             please set the keyword IGNORE_CONVERGENCE_FAILURE.         *
 *  O/|                                                                        *
 * /| |                                                                        *
 * / \                                                            qs_scf.F:611 *
 *******************************************************************************


 ===== Routine Calling Stack ===== 

            3 scf_env_do_scf
            2 qs_energies
            1 CP2K

 *******************************************************************************
 *   ___                                                                       *
 *  /   \                                                                      *
 * [ABORT]                                                                     *
 *  \___/     SCF run NOT converged. To continue the calculation regardless,   *
 *    |             please set the keyword IGNORE_CONVERGENCE_FAILURE.         *
 *  O/|                                                                        *
 * /| |                                                                        *
 * / \                                                            qs_scf.F:611 *
 *******************************************************************************


 ===== Routine Calling Stack ===== 

            3 scf_env_do_scf
            2 qs_energies
            1 CP2K

 *******************************************************************************
 *   ___                                                                       *
 *  /   \                                                                      *
 * [ABORT]                                                                     *
 *  \___/     SCF run NOT converged. To continue the calculation regardless,   *
 *    |             please set the keyword IGNORE_CONVERGENCE_FAILURE.         *
 *  O/|                                                                        *
 * /| |                                                                        *
 * / \                                                            qs_scf.F:611 *
 *******************************************************************************


 ===== Routine Calling Stack ===== 

            3 scf_env_do_scf
            2 qs_energies
            1 CP2K

 *******************************************************************************
 *   ___                                                                       *
 *  /   \                                                                      *
 * [ABORT]                                                                     *
 *  \___/     SCF run NOT converged. To continue the calculation regardless,   *
 *    |             please set the keyword IGNORE_CONVERGENCE_FAILURE.         *
 *  O/|                                                                        *
 * /| |                                                                        *
 * / \                                                            qs_scf.F:611 *
 *******************************************************************************


 ===== Routine Calling Stack ===== 

            3 scf_env_do_scf
            2 qs_energies
            1 CP2K

 *******************************************************************************
 *   ___                                                                       *
 *  /   \                                                                      *
 * [ABORT]                                                                     *
 *  \___/     SCF run NOT converged. To continue the calculation regardless,   *
 *    |             please set the keyword IGNORE_CONVERGENCE_FAILURE.         *
 *  O/|                                                                        *
 * /| |                                                                        *
 * / \                                                            qs_scf.F:611 *
 *******************************************************************************


 ===== Routine Calling Stack ===== 

            3 scf_env_do_scf
            2 qs_energies
            1 CP2K

 *******************************************************************************
 *   ___                                                                       *
 *  /   \                                                                      *
 * [ABORT]                                                                     *
 *  \___/     SCF run NOT converged. To continue the calculation regardless,   *
 *    |             please set the keyword IGNORE_CONVERGENCE_FAILURE.         *
 *  O/|                                                                        *
 * /| |                                                                        *
 * / \                                                            qs_scf.F:611 *
 *******************************************************************************


 ===== Routine Calling Stack ===== 

            3 scf_env_do_scf
            2 qs_energies
            1 CP2K

 *******************************************************************************
 *   ___                                                                       *
 *  /   \                                                                      *
 * [ABORT]                                                                     *
 *  \___/     SCF run NOT converged. To continue the calculation regardless,   *
 *    |             please set the keyword IGNORE_CONVERGENCE_FAILURE.         *
 *  O/|                                                                        *
 * /| |                                                                        *
 * / \                                                            qs_scf.F:611 *
 *******************************************************************************


 ===== Routine Calling Stack ===== 

            3 scf_env_do_scf
            2 qs_energies
            1 CP2K

 *******************************************************************************
 *   ___                                                                       *
 *  /   \                                                                      *
 * [ABORT]                                                                     *
 *  \___/     SCF run NOT converged. To continue the calculation regardless,   *
 *    |             please set the keyword IGNORE_CONVERGENCE_FAILURE.         *
 *  O/|                                                                        *
 * /| |                                                                        *
 * / \                                                            qs_scf.F:611 *
 *******************************************************************************


 ===== Routine Calling Stack ===== 

            3 scf_env_do_scf
            2 qs_energies
            1 CP2K

 *******************************************************************************
 *   ___                                                                       *
 *  /   \                                                                      *
 * [ABORT]                                                                     *
 *  \___/     SCF run NOT converged. To continue the calculation regardless,   *
 *    |             please set the keyword IGNORE_CONVERGENCE_FAILURE.         *
 *  O/|                                                                        *
 * /| |                                                                        *
 * / \                                                            qs_scf.F:611 *
 *******************************************************************************


 ===== Routine Calling Stack ===== 

            3 scf_env_do_scf
            2 qs_energies
            1 CP2K
