 DBCSR| CPU Multiplication driver                                           BLAS (U)
 DBCSR| Multrec recursion limit                                              512 (U)
 DBCSR| Multiplication stack size                                           1000 (D)
 DBCSR| Maximum elements for images                                    UNLIMITED (U)
 DBCSR| Multiplicative factor virtual images                                   1 (U)
 DBCSR| Use multiplication densification                                       T (D)
 DBCSR| Multiplication size stacks                                             3 (U)
 DBCSR| Use memory pool for CPU allocation                                     F (U)
 DBCSR| Number of 3D layers                                               SINGLE (U)
 DBCSR| Use MPI memory allocation                                              F (U)
 DBCSR| Use RMA algorithm                                                      F (U)
 DBCSR| Use Communication thread                                               T (U)
 DBCSR| Communication thread load                                             75 (D)
 DBCSR| MPI: My process id                                                     0
 DBCSR| MPI: Number of processes                                              24
 DBCSR| OMP: Current number of threads                                         4
 DBCSR| OMP: Max number of threads                                             4
 DBCSR| Split modifier for TAS multiplication algorithm                  1.0E+00 (U)


  **** **** ******  **  PROGRAM STARTED AT               2025-03-13 07:18:58.693
 ***** ** ***  *** **   PROGRAM STARTED ON                          i02r07c02s05
 **    ****   ******    PROGRAM STARTED BY                               di38fab
 ***** **    ** ** **   PROGRAM PROCESS ID                               4183830
  **** **  *******  **  PROGRAM STARTED IN /hppfs/scratch/04/di38fab/05_MOL/W4-1
                                           1+ALK/c2/SZVSR/GW+BSE/Np1

 CP2K| version string:                 CP2K version 2025.1 (Development Version)
 CP2K| source code revision number:                                  git:d2e611a
 CP2K| cp2kflags: omp libint fftw3 libxc parallel scalapack max_contr=4         
 CP2K| is freely available from                            https://www.cp2k.org/
 CP2K| Program compiled at                       Thu 06 Mar 2025 05:09:20 PM CET
 CP2K| Program compiled on                                               login02
 CP2K| Program compiled for                                        Supermuc-foss
 CP2K| Data directory path                  /hppfs/work/pn36zo/di38fab/cp2k/data
 CP2K| Input file name                                                    GW.inp

 GLOBAL| Force Environment number                                              1
 GLOBAL| Basis set file name            /hppfs/scratch/04/di38fab/04_TMD/BASIS_A
 GLOBAL| Potential file name            /hppfs/work/pn36zo/di38fab/cp2k/data/ALL
 GLOBAL| MM Potential file name                                     MM_POTENTIAL
 GLOBAL| Coordinate file name                                      __STD_INPUT__
 GLOBAL| Method name                                                        CP2K
 GLOBAL| Project name                                                       MoS2
 GLOBAL| Run type                                                         ENERGY
 GLOBAL| FFT library                                                       FFTW3
 GLOBAL| Diagonalization library                                       ScaLAPACK
 GLOBAL| DGEMM library                                                      BLAS
 GLOBAL| Orthonormality check for eigenvectors                          DISABLED
 GLOBAL| Matrix multiplication library                                 ScaLAPACK
 GLOBAL| All-to-all communication in single precision                          F
 GLOBAL| FFTs using library dependent lengths                                  F
 GLOBAL| Grid backend                                                       AUTO
 GLOBAL| Global print level                                               MEDIUM
 GLOBAL| MPI I/O enabled                                                       T
 GLOBAL| Total number of message passing processes                            24
 GLOBAL| Number of threads for this process                                    4
 GLOBAL| This output is from process                                           0
 GLOBAL| OpenMP stack size per thread (OMP_STACKSIZE)                    default
 GLOBAL| CPU model name             Intel(R) Xeon(R) Platinum 8174 CPU @ 3.10GHz

 MEMORY| system memory details [Kb]
 MEMORY|                        rank 0           min           max       average
 MEMORY| MemTotal             98436664      98436664      98436736      98436700
 MEMORY| MemFree              83608780      83608780      83768948      83688864
 MEMORY| Buffers                     0             0             0             0
 MEMORY| Cached                2606720       2606720       2613700       2610210
 MEMORY| Slab                  1229544       1198120       1229544       1213832
 MEMORY| SReclaimable           266312        265096        266312        265704
 MEMORY| MemLikelyFree        86481812      86481812      86647744      86564778


 *** Fundamental physical constants (SI units) ***

 *** Literature: B. J. Mohr and B. N. Taylor,
 ***             CODATA recommended values of the fundamental physical
 ***             constants: 2006, Web Version 5.1
 ***             http://physics.nist.gov/constants

 Speed of light in vacuum [m/s]                             2.99792458000000E+08
 Magnetic constant or permeability of vacuum [N/A**2]       1.25663706143592E-06
 Electric constant or permittivity of vacuum [F/m]          8.85418781762039E-12
 Planck constant (h) [J*s]                                  6.62606896000000E-34
 Planck constant (h-bar) [J*s]                              1.05457162825177E-34
 Elementary charge [C]                                      1.60217648700000E-19
 Electron mass [kg]                                         9.10938215000000E-31
 Electron g factor [ ]                                     -2.00231930436220E+00
 Proton mass [kg]                                           1.67262163700000E-27
 Fine-structure constant                                    7.29735253760000E-03
 Rydberg constant [1/m]                                     1.09737315685270E+07
 Avogadro constant [1/mol]                                  6.02214179000000E+23
 Boltzmann constant [J/K]                                   1.38065040000000E-23
 Atomic mass unit [kg]                                      1.66053878200000E-27
 Bohr radius [m]                                            5.29177208590000E-11

 *** Conversion factors ***

 [u] -> [a.u.]                                              1.82288848426455E+03
 [Angstrom] -> [Bohr] = [a.u.]                              1.88972613288564E+00
 [a.u.] = [Bohr] -> [Angstrom]                              5.29177208590000E-01
 [a.u.] -> [s]                                              2.41888432650478E-17
 [a.u.] -> [fs]                                             2.41888432650478E-02
 [a.u.] -> [J]                                              4.35974393937059E-18
 [a.u.] -> [N]                                              8.23872205491840E-08
 [a.u.] -> [K]                                              3.15774647902944E+05
 [a.u.] -> [kJ/mol]                                         2.62549961709828E+03
 [a.u.] -> [kcal/mol]                                       6.27509468713739E+02
 [a.u.] -> [Pa]                                             2.94210107994716E+13
 [a.u.] -> [bar]                                            2.94210107994716E+08
 [a.u.] -> [atm]                                            2.90362800883016E+08
 [a.u.] -> [eV]                                             2.72113838565563E+01
 [a.u.] -> [Hz]                                             6.57968392072181E+15
 [a.u.] -> [1/cm] (wave numbers)                            2.19474631370540E+05
 [a.u./Bohr**2] -> [1/cm]                                   5.14048714338585E+03
 

 CELL_TOP| Volume [angstrom^3]:                                     27000.000000
 CELL_TOP| Vector a [angstrom    30.000     0.000     0.000   |a| =    30.000000
 CELL_TOP| Vector b [angstrom     0.000    30.000     0.000   |b| =    30.000000
 CELL_TOP| Vector c [angstrom     0.000     0.000    30.000   |c| =    30.000000
 CELL_TOP| Angle (b,c), alpha [degree]:                                90.000000
 CELL_TOP| Angle (a,c), beta  [degree]:                                90.000000
 CELL_TOP| Angle (a,b), gamma [degree]:                                90.000000
 CELL_TOP| Numerically orthorhombic:                                         YES
 CELL_TOP| Periodicity                                                      NONE

 GENERATE|  Preliminary Number of Bonds generated:                             0
 GENERATE|  Achieved consistency in connectivity generation.

 CELL| Volume [angstrom^3]:                                         27000.000000
 CELL| Vector a [angstrom]:      30.000     0.000     0.000   |a| =    30.000000
 CELL| Vector b [angstrom]:       0.000    30.000     0.000   |b| =    30.000000
 CELL| Vector c [angstrom]:       0.000     0.000    30.000   |c| =    30.000000
 CELL| Angle (b,c), alpha [degree]:                                    90.000000
 CELL| Angle (a,c), beta  [degree]:                                    90.000000
 CELL| Angle (a,b), gamma [degree]:                                    90.000000
 CELL| Numerically orthorhombic:                                             YES
 CELL| Periodicity                                                          NONE

 CELL_REF| Volume [angstrom^3]:                                     27000.000000
 CELL_REF| Vector a [angstrom    30.000     0.000     0.000   |a| =    30.000000
 CELL_REF| Vector b [angstrom     0.000    30.000     0.000   |b| =    30.000000
 CELL_REF| Vector c [angstrom     0.000     0.000    30.000   |c| =    30.000000
 CELL_REF| Angle (b,c), alpha [degree]:                                90.000000
 CELL_REF| Angle (a,c), beta  [degree]:                                90.000000
 CELL_REF| Angle (a,b), gamma [degree]:                                90.000000
 CELL_REF| Numerically orthorhombic:                                         YES
 CELL_REF| Periodicity                                                      NONE

 *******************************************************************************
 *******************************************************************************
 **                                                                           **
 **     #####                         ##              ##                      **
 **    ##   ##            ##          ##              ##                      **
 **   ##     ##                       ##            ######                    **
 **   ##     ##  ##   ##  ##   #####  ##  ##   ####   ##    #####    #####    **
 **   ##     ##  ##   ##  ##  ##      ## ##   ##      ##   ##   ##  ##   ##   **
 **   ##  ## ##  ##   ##  ##  ##      ####     ###    ##   ######   ######    **
 **    ##  ###   ##   ##  ##  ##      ## ##      ##   ##   ##       ##        **
 **     #######   #####   ##   #####  ##  ##  ####    ##    #####   ##        **
 **           ##                                                    ##        **
 **                                                                           **
 **                                                ... make the atoms dance   **
 **                                                                           **
 **            Copyright (C) by CP2K developers group (2000-2025)             **
 **                      J. Chem. Phys. 152, 194103 (2020)                    **
 **                                                                           **
 *******************************************************************************

 DFT| Spin restricted Kohn-Sham (RKS) calculation                            RKS
 DFT| Multiplicity                                                             1
 DFT| Number of spin states                                                    1
 DFT| Charge                                                                   0
 DFT| Self-interaction correction (SIC)                                       NO
 DFT| Cutoffs: density                                              1.000000E-10
 DFT|          gradient                                             1.000000E-10
 DFT|          tau                                                  1.000000E-10
 DFT|          cutoff_smoothing_range                               0.000000E+00
 DFT| XC density smoothing                                                  NONE
 DFT| XC derivatives                                                          PW

 FUNCTIONAL| PBE:
 FUNCTIONAL| J.P.Perdew, K.Burke, M.Ernzerhof, Phys. Rev. Letter, vol. 77, n 18,
 FUNCTIONAL|  pp. 3865-3868, (1996)sx=0.750sc=1.000{spin unpolarized}           


 QS| Method:                                                                GAPW
 QS| Density plane wave grid type                        NON-SPHERICAL FULLSPACE
 QS| Number of grid levels:                                                    4
 QS| Density cutoff [a.u.]:                                                250.0
 QS| Multi grid cutoff [a.u.]: 1) grid level                               250.0
 QS|                           2) grid level                                83.3
 QS|                           3) grid level                                27.8
 QS|                           4) grid level                                 9.3
 QS| Grid level progression factor:                                          3.0
 QS| Relative density cutoff [a.u.]:                                        50.0
 QS| Interaction thresholds: eps_pgf_orb:                                1.0E-12
 QS|                         eps_filter_matrix:                          0.0E+00
 QS|                         eps_core_charge:                            1.0E-14
 QS|                         eps_rho_gspace:                             1.0E-12
 QS|                         eps_rho_rspace:                             1.0E-12
 QS|                         eps_gvg_rspace:                             1.0E-06
 QS|                         eps_ppl:                                    1.0E-02
 QS|                         eps_ppnl:                                   1.0E-08
 QS| GAPW|      One center basis from orbital basis primitives
 QS| GAPW|                   eps_fit:                                    1.0E-04
 QS| GAPW|                   eps_iso:                                    1.0E-12
 QS| GAPW|                   eps_svd:                                    1.0E-08
 QS| GAPW|                   eps_cpc:                                    1.0E-12
 QS| GAPW|   atom-r-grid: quadrature:                                     GC_LOG
 QS| GAPW|      atom-s-grid:  max l :                                          4
 QS| GAPW|      max_l_rho0 :                                                   2


 ATOMIC KIND INFORMATION

  1. Atomic kind: C                                     Number of atoms:       2

     Orbital Basis Set                                      aug-SZV-MOLOPT-ae-SR

       Number of orbital shell sets:                                           2
       Number of orbital shells:                                               6
       Number of primitive Cartesian functions:                                7
       Number of Cartesian basis functions:                                   15
       Number of spherical basis functions:                                   14
       Norm type:                                                              2

       Normalised Cartesian orbitals:

                        Set   Shell   Orbital            Exponent    Coefficient

                          1       1    2s                0.114559       0.000000
                                                         0.222290       0.161536
                                                         0.683483       0.214036
                                                         2.941249      -0.160017

                          1       2    3s                0.114559       0.078076
                                                         0.222290       0.130402
                                                         0.683483      -0.084834
                                                         2.941249       0.041379

                          1       3    3px               0.114559       0.000000
                                                         0.222290       0.085276
                                                         0.683483       0.538304
                                                         2.941249       0.856045
                          1       3    3py               0.114559       0.000000
                                                         0.222290       0.085276
                                                         0.683483       0.538304
                                                         2.941249       0.856045
                          1       3    3pz               0.114559       0.000000
                                                         0.222290       0.085276
                                                         0.683483       0.538304
                                                         2.941249       0.856045

                          1       4    4px               0.114559       0.224492
                                                         0.222290      -0.546182
                                                         0.683483       0.918493
                                                         2.941249      -0.348342
                          1       4    4py               0.114559       0.224492
                                                         0.222290      -0.546182
                                                         0.683483       0.918493
                                                         2.941249      -0.348342
                          1       4    4pz               0.114559       0.224492
                                                         0.222290      -0.546182
                                                         0.683483       0.918493
                                                         2.941249      -0.348342

                          1       5    4dx2              0.114559       0.004023
                                                         0.222290       0.096934
                                                         0.683483       0.116751
                                                         2.941249       0.357653
                          1       5    4dxy              0.114559       0.006968
                                                         0.222290       0.167895
                                                         0.683483       0.202218
                                                         2.941249       0.619473
                          1       5    4dxz              0.114559       0.006968
                                                         0.222290       0.167895
                                                         0.683483       0.202218
                                                         2.941249       0.619473
                          1       5    4dy2              0.114559       0.004023
                                                         0.222290       0.096934
                                                         0.683483       0.116751
                                                         2.941249       0.357653
                          1       5    4dyz              0.114559       0.006968
                                                         0.222290       0.167895
                                                         0.683483       0.202218
                                                         2.941249       0.619473
                          1       5    4dz2              0.114559       0.004023
                                                         0.222290       0.096934
                                                         0.683483       0.116751
                                                         2.941249       0.357653

                          2       1    1s               71.616837       2.707814
                                                        13.045096       2.618880
                                                         3.530512       0.816191

     RI Auxiliary Basis Set             RI_aug-SZV-MOLOPT-ae-SR_N_RI_045_s_p_d_f

       Number of orbital shell sets:                                          15
       Number of orbital shells:                                              15
       Number of primitive Cartesian functions:                               15
       Number of Cartesian basis functions:                                   53
       Number of spherical basis functions:                                   45
       Norm type:                                                              2

       Normalised Cartesian orbitals:

                        Set   Shell   Orbital            Exponent    Coefficient

                          1       1    1s                0.335626       0.314269

                          2       1    7px               0.430431       0.496958
                          2       1    7py               0.430431       0.496958
                          2       1    7pz               0.430431       0.496958

                          3       1   12dx2              0.522083       0.527781
                          3       1   12dxy              0.522083       0.914144
                          3       1   12dxz              0.522083       0.914144
                          3       1   12dy2              0.522083       0.527781
                          3       1   12dyz              0.522083       0.914144
                          3       1   12dz2              0.522083       0.527781

                          4       1    8px               0.557902       0.687287
                          4       1    8py               0.557902       0.687287
                          4       1    8pz               0.557902       0.687287

                          5       1   14fx3              0.588350       0.446308
                          5       1   14fx2y             0.588350       0.997974
                          5       1   14fx2z             0.588350       0.997974
                          5       1   14fxy2             0.588350       0.997974
                          5       1   14fxyz             0.588350       1.728542
                          5       1   14fxz2             0.588350       0.997974
                          5       1   14fy3              0.588350       0.446308
                          5       1   14fy2z             0.588350       0.997974
                          5       1   14fyz2             0.588350       0.997974
                          5       1   14fz3              0.588350       0.446308

                          6       1    2s                1.012193       0.719213

                          7       1    9px               1.595955       2.556913
                          7       1    9py               1.595955       2.556913
                          7       1    9pz               1.595955       2.556913

                          8       1   15fx3              2.519735      11.776133
                          8       1   15fx2y             2.519735      26.332235
                          8       1   15fx2z             2.519735      26.332235
                          8       1   15fxy2             2.519735      26.332235
                          8       1   15fxyz             2.519735      45.608768
                          8       1   15fxz2             2.519735      26.332235
                          8       1   15fy3              2.519735      11.776133
                          8       1   15fy2z             2.519735      26.332235
                          8       1   15fyz2             2.519735      26.332235
                          8       1   15fz3              2.519735      11.776133

                          9       1   13dx2              2.522804       8.312002
                          9       1   13dxy              2.522804      14.396810
                          9       1   13dxz              2.522804      14.396810
                          9       1   13dy2              2.522804       8.312002
                          9       1   13dyz              2.522804      14.396810
                          9       1   13dz2              2.522804       8.312002

                         10       1    3s                3.115568       1.671333

                         11       1   10px               5.069113      10.841891
                         11       1   10py               5.069113      10.841891
                         11       1   10pz               5.069113      10.841891

                         12       1    4s                9.232047       3.774710

                         13       1   11px              15.199704      42.779333
                         13       1   11py              15.199704      42.779333
                         13       1   11pz              15.199704      42.779333

                         14       1    5s               27.130488       8.472338

                         15       1    6s               79.597157      18.992549

       Atomic covalent radius [Angstrom]:                                  0.770

       Atomic van der Waals radius [Angstrom]:                             1.700

     The atoms of this atomic kind are PAW atoms (GAPW):
       Hard Gaussian function radius:                                      1.512
       Rho0 radius:                                                        1.512
       Maximum GTO radius used for PAW projector construction:            24.566

     GAPW Soft Basis Set                               aug-SZV-MOLOPT-ae-SR_soft

       Number of orbital shell sets:                                           2
       Number of orbital shells:                                               6
       Number of primitive Cartesian functions:                                5
       Number of Cartesian basis functions:                                   15
       Number of spherical basis functions:                                   14
       Norm type:                                                              2

       Normalised Cartesian orbitals:

                        Set   Shell   Orbital            Exponent    Coefficient

                          1       1    2s                0.114559       0.000000
                                                         0.222290       0.161536
                                                         0.683483       0.214036
                                                         2.941249      -0.160017

                          1       2    3s                0.114559       0.078076
                                                         0.222290       0.130402
                                                         0.683483      -0.084834
                                                         2.941249       0.041379

                          1       3    3px               0.114559       0.000000
                                                         0.222290       0.085276
                                                         0.683483       0.538304
                                                         2.941249       0.856045
                          1       3    3py               0.114559       0.000000
                                                         0.222290       0.085276
                                                         0.683483       0.538304
                                                         2.941249       0.856045
                          1       3    3pz               0.114559       0.000000
                                                         0.222290       0.085276
                                                         0.683483       0.538304
                                                         2.941249       0.856045

                          1       4    4px               0.114559       0.224492
                                                         0.222290      -0.546182
                                                         0.683483       0.918493
                                                         2.941249      -0.348342
                          1       4    4py               0.114559       0.224492
                                                         0.222290      -0.546182
                                                         0.683483       0.918493
                                                         2.941249      -0.348342
                          1       4    4pz               0.114559       0.224492
                                                         0.222290      -0.546182
                                                         0.683483       0.918493
                                                         2.941249      -0.348342

                          1       5    4dx2              0.114559       0.004023
                                                         0.222290       0.096934
                                                         0.683483       0.116751
                                                         2.941249       0.357653
                          1       5    4dxy              0.114559       0.006968
                                                         0.222290       0.167895
                                                         0.683483       0.202218
                                                         2.941249       0.619473
                          1       5    4dxz              0.114559       0.006968
                                                         0.222290       0.167895
                                                         0.683483       0.202218
                                                         2.941249       0.619473
                          1       5    4dy2              0.114559       0.004023
                                                         0.222290       0.096934
                                                         0.683483       0.116751
                                                         2.941249       0.357653
                          1       5    4dyz              0.114559       0.006968
                                                         0.222290       0.167895
                                                         0.683483       0.202218
                                                         2.941249       0.619473
                          1       5    4dz2              0.114559       0.004023
                                                         0.222290       0.096934
                                                         0.683483       0.116751
                                                         2.941249       0.357653

                          2       1    1s                3.530512       0.816191

     AE Potential information for                                            ALL

       Description:                                       All-electron potential
                                          Krack, Parrinello, PCCP 2, 2105 (2000)

       Gaussian exponent of the core charge distribution:               4.109048
       Electronic configuration (s p d ...):                           4   2   0


 MOLECULE KIND INFORMATION


 All atoms are their own molecule, skipping detailed information


 TOTAL NUMBERS AND MAXIMUM NUMBERS

  Total number of            - Atomic kinds:                                   1
                             - Atoms:                                          2
                             - Shell sets:                                     4
                             - Shells:                                        12
                             - Primitive Cartesian functions:                 14
                             - Cartesian basis functions:                     30
                             - Spherical basis functions:                     28

  Maximum angular momentum of the orbital basis functions:                     2


 MODULE QUICKSTEP: ATOMIC COORDINATES IN ANGSTROM

   Atom Kind Element         X             Y             Z       Z(eff)     Mass
      1    1 C     6     15.620000     15.000000     15.000000   6.0000  12.0107
      2    1 C     6     14.380000     15.000000     15.000000   6.0000  12.0107



 SCF PARAMETERS         Density guess:                                    ATOMIC
                        --------------------------------------------------------
                        max_scf:                                             500
                        max_scf_history:                                       0
                        max_diis:                                              4
                        --------------------------------------------------------
                        eps_scf:                                        1.00E-06
                        eps_scf_history:                                0.00E+00
                        eps_diis:                                       1.00E-01
                        eps_eigval:                                     1.00E-05
                        --------------------------------------------------------
                        level_shift [a.u.]:                             0.000000
                        added MOs                                        22    0
                        --------------------------------------------------------
                        Mixing method:                            BROYDEN_MIXING
                                                charge density mixing in g-space
                        --------------------------------------------------------
                        No outer SCF

 PW_GRID| Information for grid number                                          1
 PW_GRID| Grid distributed over                                    24 processors
 PW_GRID| Real space group dimensions                                    24    1
 PW_GRID| the grid is blocked:                                                NO
 PW_GRID| Cutoff [a.u.]                                                    250.0
 PW_GRID| spherical cutoff:                                                   NO
 PW_GRID|   Bounds   1           -202     202                Points:         405
 PW_GRID|   Bounds   2           -202     202                Points:         405
 PW_GRID|   Bounds   3           -202     202                Points:         405
 PW_GRID| Volume element (a.u.^3)  0.2743E-02     Volume (a.u.^3)    182205.0337
 PW_GRID| Grid span                                                    FULLSPACE
 PW_GRID|   Distribution                         Average         Max         Min
 PW_GRID|   G-Vectors                          2767921.9     2768175     2767770
 PW_GRID|   G-Rays                                6834.4        6835        6834
 PW_GRID|   Real Space Points                  2767921.9     2788425     2624400

 PW_GRID| Information for grid number                                          2
 PW_GRID| Number of the reference grid                                         1
 PW_GRID| Grid distributed over                                    24 processors
 PW_GRID| Real space group dimensions                                    24    1
 PW_GRID| the grid is blocked:                                                NO
 PW_GRID| Cutoff [a.u.]                                                     83.3
 PW_GRID| spherical cutoff:                                                   NO
 PW_GRID|   Bounds   1           -120     119                Points:         240
 PW_GRID|   Bounds   2           -120     119                Points:         240
 PW_GRID|   Bounds   3           -120     119                Points:         240
 PW_GRID| Volume element (a.u.^3)  0.1318E-01     Volume (a.u.^3)    182205.0337
 PW_GRID| Grid span                                                    FULLSPACE
 PW_GRID|   Distribution                         Average         Max         Min
 PW_GRID|   G-Vectors                           576000.0      576240      575760
 PW_GRID|   G-Rays                                2400.0        2401        2399
 PW_GRID|   Real Space Points                   576000.0      576000      576000

 PW_GRID| Information for grid number                                          3
 PW_GRID| Number of the reference grid                                         1
 PW_GRID| Grid distributed over                                    24 processors
 PW_GRID| Real space group dimensions                                    24    1
 PW_GRID| the grid is blocked:                                                NO
 PW_GRID| Cutoff [a.u.]                                                     27.8
 PW_GRID| spherical cutoff:                                                   NO
 PW_GRID|   Bounds   1            -67      67                Points:         135
 PW_GRID|   Bounds   2            -67      67                Points:         135
 PW_GRID|   Bounds   3            -67      67                Points:         135
 PW_GRID| Volume element (a.u.^3)  0.7406E-01     Volume (a.u.^3)    182205.0337
 PW_GRID| Grid span                                                    FULLSPACE
 PW_GRID|   Distribution                         Average         Max         Min
 PW_GRID|   G-Vectors                           102515.6      102735      102330
 PW_GRID|   G-Rays                                 759.4         761         758
 PW_GRID|   Real Space Points                   102515.6      109350       91125

 PW_GRID| Information for grid number                                          4
 PW_GRID| Number of the reference grid                                         1
 PW_GRID| Grid distributed over                                    24 processors
 PW_GRID| Real space group dimensions                                    24    1
 PW_GRID| the grid is blocked:                                                NO
 PW_GRID| Cutoff [a.u.]                                                      9.3
 PW_GRID| spherical cutoff:                                                   NO
 PW_GRID|   Bounds   1            -40      39                Points:          80
 PW_GRID|   Bounds   2            -40      39                Points:          80
 PW_GRID|   Bounds   3            -40      39                Points:          80
 PW_GRID| Volume element (a.u.^3)  0.3559         Volume (a.u.^3)    182205.0337
 PW_GRID| Grid span                                                    FULLSPACE
 PW_GRID|   Distribution                         Average         Max         Min
 PW_GRID|   G-Vectors                            21333.3       21360       21280
 PW_GRID|   G-Rays                                 266.7         267         266
 PW_GRID|   Real Space Points                    21333.3       25600       19200

 POISSON| Solver                                                         WAVELET
 POISSON| Wavelet| Scaling function                                           40
 POISSON| Periodicity                                                       NONE

 RS_GRID| Information for grid number                                          1
 RS_GRID|   Bounds   1           -202     202                Points:         405
 RS_GRID|   Bounds   2           -202     202                Points:         405
 RS_GRID|   Bounds   3           -202     202                Points:         405
 RS_GRID| Real space distribution over                                  2 groups
 RS_GRID| Real space distribution along direction                              1
 RS_GRID| Border size                                                         27
 RS_GRID| Real space distribution over                                  3 groups
 RS_GRID| Real space distribution along direction                              2
 RS_GRID| Border size                                                         27
 RS_GRID| Real space distribution over                                  4 groups
 RS_GRID| Real space distribution along direction                              3
 RS_GRID| Border size                                                         27
 RS_GRID|   Distribution                         Average         Max         Min
 RS_GRID|   Planes                                 256.5         257         256
 RS_GRID|   Distribution                         Average         Max         Min
 RS_GRID|   Planes                                 189.0         189         189
 RS_GRID|   Distribution                         Average         Max         Min
 RS_GRID|   Planes                                 155.2         156         155

 RS_GRID| Information for grid number                                          2
 RS_GRID|   Bounds   1           -120     119                Points:         240
 RS_GRID|   Bounds   2           -120     119                Points:         240
 RS_GRID|   Bounds   3           -120     119                Points:         240
 RS_GRID| Real space distribution over                                  2 groups
 RS_GRID| Real space distribution along direction                              1
 RS_GRID| Border size                                                         34
 RS_GRID| Real space distribution over                                  3 groups
 RS_GRID| Real space distribution along direction                              2
 RS_GRID| Border size                                                         34
 RS_GRID| Real space distribution over                                  4 groups
 RS_GRID| Real space distribution along direction                              3
 RS_GRID| Border size                                                         34
 RS_GRID|   Distribution                         Average         Max         Min
 RS_GRID|   Planes                                 188.0         188         188
 RS_GRID|   Distribution                         Average         Max         Min
 RS_GRID|   Planes                                 148.0         148         148
 RS_GRID|   Distribution                         Average         Max         Min
 RS_GRID|   Planes                                 128.0         128         128

 RS_GRID| Information for grid number                                          3
 RS_GRID|   Bounds   1            -67      67                Points:         135
 RS_GRID|   Bounds   2            -67      67                Points:         135
 RS_GRID|   Bounds   3            -67      67                Points:         135
 RS_GRID| Real space fully replicated
 RS_GRID| Group size                                                           1

 RS_GRID| Information for grid number                                          4
 RS_GRID|   Bounds   1            -40      39                Points:          80
 RS_GRID|   Bounds   2            -40      39                Points:          80
 RS_GRID|   Bounds   3            -40      39                Points:          80
 RS_GRID| Real space fully replicated
 RS_GRID| Group size                                                           1

  HFX_INFO| Replica ID:                                                        1
  HFX_INFO| FRACTION:                                               0.2500000000
  HFX_INFO| Interaction Potential:                                       COULOMB
  HFX_INFO| EPS_SCHWARZ:                                                 1.0E-10
  HFX_INFO| EPS_SCHWARZ_FORCES                                           1.0E-08
  HFX_INFO| EPS_STORAGE_SCALING:                                         1.0E+00
  HFX_INFO| NBINS:                                                            64
  HFX_INFO| BLOCK_SIZE:                                                        1
  HFX_INFO| Number of periodic shells considered:                           NONE
  HFX_INFO| Number of periodic cells considered:                            NONE

 
 RI-RPA| using GPW style
 

 OVERLAP MATRIX CONDITION NUMBER
 1-Norm Condition Number (Estimate)
   CN : |A|*|A^-1|:  4.491E+000 *  4.358E+001   = 1.957E+002  Log(1-CN):  2.2916
 1-Norm and 2-Norm Condition Numbers using Diagonalization
   CN : |A|*|A^-1|:  4.491E+000 *  4.358E+001   = 1.957E+002  Log(1-CN):  2.2916
   CN : max/min ev:  3.409E+000 /  3.004E-002   = 1.135E+002  Log(2-CN):  2.0549

 Number of electrons:                                                         12
 Number of occupied orbitals:                                                  6
 Number of molecular orbitals:                                                28

 Number of orbital functions:                                                 28
 Number of independent orbital functions:                                     28

 Extrapolation method: initial_guess

 Atomic guess: The first density matrix is obtained in terms of atomic orbitals
               and electronic configurations assigned to each atomic kind

 Guess for atomic kind: C

 Electronic structure
    Total number of core electrons                                          0.00
    Total number of valence electrons                                       6.00
    Total number of electrons                                               6.00
    Multiplicity                                                   not specified
    S      2.00  2.00
    P      2.00


 *******************************************************************************
                  Iteration          Convergence                     Energy [au]
 *******************************************************************************
                          1        0.120726E-01                 -36.926036183281
                          2        0.325012E-02                 -36.926141945235
                          3        0.902334E-04                 -36.926147929717
                          4        0.764850E-06                 -36.926147934338

 Energy components [Hartree]           Total Energy ::          -36.926147934338
                                        Band Energy ::          -20.183008196204
                                     Kinetic Energy ::           37.060986405996
                                   Potential Energy ::          -73.987134340334
                                      Virial (-V/T) ::            1.996361713901
                                        Core Energy ::          -50.365260861891
                                          XC Energy ::           -4.835601506082
                                     Coulomb Energy ::           18.274714433635

 Orbital energies  State     L     Occupation   Energy[a.u.]          Energy[eV]

                       1     0          2.000      -9.613839         -261.605875
                       2     0          2.000      -0.408639          -11.119626

                       1     1          2.000      -0.069026           -1.878290


 Total Electron Density at R=0:                                        77.884899
 Re-scaling the density matrix to get the right number of electrons
                  # Electrons              Trace(P)               Scaling factor
                           12                12.000                        1.000


 SCF WAVEFUNCTION OPTIMIZATION

  Step     Update method      Time    Convergence         Total energy    Change
  ------------------------------------------------------------------------------

  HFX_MEM_INFO| Est. max. program size before HFX [MiB]:                    2077
  HFX_MEM_INFO| Number of cart. primitive ERI's calculated:             20481218
  HFX_MEM_INFO| Number of sph. ERI's calculated:                          230496
  HFX_MEM_INFO| Number of sph. ERI's stored in-core:                      230496
  HFX_MEM_INFO| Number of sph. ERI's stored on disk:                           0
  HFX_MEM_INFO| Number of sph. ERI's calculated on the fly:                    0
  HFX_MEM_INFO| Total memory consumption ERI's RAM [MiB]:                      2
  HFX_MEM_INFO| Whereof max-vals [MiB]:                                        1
  HFX_MEM_INFO| Total compression factor ERI's RAM:                         1.10
  HFX_MEM_INFO| Total memory consumption ERI's disk [MiB]:                     0
  HFX_MEM_INFO| Total compression factor ERI's disk:                        0.00
  HFX_MEM_INFO| Size of density/Fock matrix [MiB]:                             0
  HFX_MEM_INFO| Size of buffers [MiB]:                                         0
  HFX_MEM_INFO| Est. max. program size after HFX  [MiB]:                    2588

     1 NoMix/Diag. 0.10E+00    6.2     0.69396273       -75.0128930553 -7.50E+01
     2 Broy./Diag. 0.10E+00    4.7     0.02400987       -75.2360457130 -2.23E-01
     3 Broy./Diag. 0.10E+00    4.8     0.00265348       -75.1955811284  4.05E-02
     4 Broy./Diag. 0.10E+00    4.8     0.03899927       -74.9179940584  2.78E-01
     5 Broy./Diag. 0.10E+00    4.8     0.01097413       -74.8803517025  3.76E-02
     6 Broy./Diag. 0.10E+00    4.9     0.00228780       -74.8819322637 -1.58E-03
     7 Broy./Diag. 0.10E+00    5.0     0.00253442       -74.8884350247 -6.50E-03
     8 Broy./Diag. 0.10E+00    5.2     0.00044116       -74.8825147796  5.92E-03
     9 Broy./Diag. 0.10E+00    5.1     0.00776625       -74.8808378392  1.68E-03
    10 Broy./Diag. 0.10E+00    5.3     0.00349564       -74.8817181639 -8.80E-04
    11 Broy./Diag. 0.10E+00    5.2     0.00089914       -74.8861582887 -4.44E-03
    12 Broy./Diag. 0.10E+00    5.2     0.00435125       -74.8920091434 -5.85E-03
    13 Broy./Diag. 0.10E+00    5.4     0.00048818       -74.8881393534  3.87E-03
    14 Broy./Diag. 0.10E+00    5.3     0.00148511       -74.8838277593  4.31E-03
    15 Broy./Diag. 0.10E+00    5.2     0.00040376       -74.8845008579 -6.73E-04
    16 Broy./Diag. 0.10E+00    5.2     0.00047289       -74.8844941303  6.73E-06
    17 Broy./Diag. 0.10E+00    5.2     0.00009143       -74.8842063127  2.88E-04
    18 Broy./Diag. 0.10E+00    5.2     0.00036687       -74.8853621841 -1.16E-03
    19 Broy./Diag. 0.10E+00    5.2     0.00012845       -74.8862579841 -8.96E-04
    20 Broy./Diag. 0.10E+00    5.3     0.00032175       -74.8864375553 -1.80E-04
    21 Broy./Diag. 0.10E+00    5.2     0.00013870       -74.8853829878  1.05E-03
    22 Broy./Diag. 0.10E+00    5.2     0.00012733       -74.8850400686  3.43E-04
    23 Broy./Diag. 0.10E+00    5.2     0.00005985       -74.8850123541  2.77E-05
    24 Broy./Diag. 0.10E+00    5.2     0.00013859       -74.8847696487  2.43E-04
    25 Broy./Diag. 0.10E+00    5.2     0.00011511       -74.8846606384  1.09E-04
    26 Broy./Diag. 0.10E+00    5.2     0.00008448       -74.8848113056 -1.51E-04
    27 Broy./Diag. 0.10E+00    5.2     0.00004525       -74.8848464518 -3.51E-05
    28 Broy./Diag. 0.10E+00    5.2     0.00004588       -74.8848067789  3.97E-05
    29 Broy./Diag. 0.10E+00    5.2     0.00007157       -74.8848212819 -1.45E-05
    30 Broy./Diag. 0.10E+00    5.2     0.00002567       -74.8848078292  1.35E-05
    31 Broy./Diag. 0.10E+00    5.3     0.00007281       -74.8847777438  3.01E-05
    32 Broy./Diag. 0.10E+00    5.2     0.00002835       -74.8847948143 -1.71E-05
    33 Broy./Diag. 0.10E+00    5.4     0.00004572       -74.8847735871  2.12E-05
    34 Broy./Diag. 0.10E+00    5.2     0.00001458       -74.8847929235 -1.93E-05
    35 Broy./Diag. 0.10E+00    5.2     0.00002814       -74.8848043806 -1.15E-05
    36 Broy./Diag. 0.10E+00    5.2     0.00003604       -74.8847914019  1.30E-05
    37 Broy./Diag. 0.10E+00    5.3     0.00002957       -74.8847896986  1.70E-06
    38 Broy./Diag. 0.10E+00    5.3     0.00002341       -74.8847926527 -2.95E-06
    39 Broy./Diag. 0.10E+00    5.2     0.00003897       -74.8847705111  2.21E-05
    40 Broy./Diag. 0.10E+00    5.2     0.00003062       -74.8847437387  2.68E-05
    41 Broy./Diag. 0.10E+00    5.3     0.00002258       -74.8847491157 -5.38E-06
    42 Broy./Diag. 0.10E+00    5.2     0.00002627       -74.8847504146 -1.30E-06
    43 Broy./Diag. 0.10E+00    5.2     0.00001853       -74.8847426066  7.81E-06
    44 Broy./Diag. 0.10E+00    5.2     0.00002131       -74.8847536189 -1.10E-05
    45 Broy./Diag. 0.10E+00    5.3     0.00002368       -74.8847578068 -4.19E-06
    46 Broy./Diag. 0.10E+00    5.3     0.00001611       -74.8847542033  3.60E-06
    47 Broy./Diag. 0.10E+00    5.2     0.00001904       -74.8847553441 -1.14E-06
    48 Broy./Diag. 0.10E+00    5.2     0.00001939       -74.8847548090  5.35E-07
    49 Broy./Diag. 0.10E+00    5.2     0.00001476       -74.8847542992  5.10E-07
    50 Broy./Diag. 0.10E+00    5.2     0.00000667       -74.8847554431 -1.14E-06
    51 Broy./Diag. 0.10E+00    5.2     0.00001178       -74.8847579229 -2.48E-06
    52 Broy./Diag. 0.10E+00    5.2     0.00000909       -74.8847611290 -3.21E-06
    53 Broy./Diag. 0.10E+00    5.2     0.00000554       -74.8847602467  8.82E-07
    54 Broy./Diag. 0.10E+00    5.3     0.00000745       -74.8847546907  5.56E-06
    55 Broy./Diag. 0.10E+00    5.2     0.00001003       -74.8847489416  5.75E-06
    56 Broy./Diag. 0.10E+00    5.2     0.00001330       -74.8847428521  6.09E-06
    57 Broy./Diag. 0.10E+00    5.2     0.00001764       -74.8847097753  3.31E-05
    58 Broy./Diag. 0.10E+00    5.3     0.00005825       -74.8847039333  5.84E-06
    59 Broy./Diag. 0.10E+00    5.3     0.00007471       -74.8847102515 -6.32E-06
    60 Broy./Diag. 0.10E+00    5.2     0.00006960       -74.8847087270  1.52E-06
    61 Broy./Diag. 0.10E+00    5.2     0.00007521       -74.8847416610 -3.29E-05
    62 Broy./Diag. 0.10E+00    5.3     0.00010513       -74.8847528701 -1.12E-05
    63 Broy./Diag. 0.10E+00    5.2     0.00013937       -74.8847220906  3.08E-05
    64 Broy./Diag. 0.10E+00    5.2     0.00019114       -74.8847229148 -8.24E-07
    65 Broy./Diag. 0.10E+00    5.3     0.00027358       -74.8846913585  3.16E-05
    66 Broy./Diag. 0.10E+00    5.2     0.00037162       -74.8847396930 -4.83E-05
    67 Broy./Diag. 0.10E+00    5.2     0.00052614       -74.8847233240  1.64E-05
    68 Broy./Diag. 0.10E+00    5.2     0.00073132       -74.8847273019 -3.98E-06
    69 Broy./Diag. 0.10E+00    5.2     0.00101600       -74.8847222723  5.03E-06
    70 Broy./Diag. 0.10E+00    5.3     0.00141540       -74.8847244461 -2.17E-06
    71 Broy./Diag. 0.10E+00    5.3     0.00196960       -74.8847262122 -1.77E-06
    72 Broy./Diag. 0.10E+00    5.2     0.00273350       -74.8846943931  3.18E-05
    73 Broy./Diag. 0.10E+00    5.2     0.00379436       -74.8846541179  4.03E-05
    74 Broy./Diag. 0.10E+00    5.2     0.00526989       -74.8845671292  8.70E-05
    75 Broy./Diag. 0.10E+00    5.2     0.00728185       -74.8846172920 -5.02E-05
    76 Broy./Diag. 0.10E+00    5.2     0.01008342       -74.8845112346  1.06E-04
    77 Broy./Diag. 0.10E+00    5.3     0.01386679       -74.8843103259  2.01E-04
    78 Broy./Diag. 0.10E+00    5.2     0.01886427       -74.8838687094  4.42E-04
    79 Broy./Diag. 0.10E+00    5.2     0.02515789       -74.8830400927  8.29E-04
    80 Broy./Diag. 0.10E+00    5.2     0.03230862       -74.8814899696  1.55E-03
    81 Broy./Diag. 0.10E+00    5.2     0.03867451       -74.8785505788  2.94E-03
    82 Broy./Diag. 0.10E+00    5.3     0.05946939       -74.8734151502  5.14E-03
    83 Broy./Diag. 0.10E+00    5.4     0.08446563       -74.8649734864  8.44E-03
    84 Broy./Diag. 0.10E+00    5.2     0.10256232       -74.8530096812  1.20E-02
    85 Broy./Diag. 0.10E+00    5.2     0.10407093       -74.8377805884  1.52E-02
    86 Broy./Diag. 0.10E+00    5.3     0.08960253       -74.8217379467  1.60E-02
    87 Broy./Diag. 0.10E+00    5.3     0.06776790       -74.8075510269  1.42E-02
    88 Broy./Diag. 0.10E+00    5.3     0.04674861       -74.7968225058  1.07E-02
    89 Broy./Diag. 0.10E+00    5.3     0.03204658       -74.7896339074  7.19E-03
    90 Broy./Diag. 0.10E+00    5.2     0.02741080       -74.7850067074  4.63E-03
    91 Broy./Diag. 0.10E+00    5.3     0.02236396       -74.7820297349  2.98E-03
    92 Broy./Diag. 0.10E+00    5.2     0.01736490       -74.7800246625  2.01E-03
    93 Broy./Diag. 0.10E+00    5.2     0.01284660       -74.7795805216  4.44E-04
    94 Broy./Diag. 0.10E+00    5.3     0.00930742       -74.7760081697  3.57E-03
    95 Broy./Diag. 0.10E+00    5.3     0.00658883       -74.7765951243 -5.87E-04
    96 Broy./Diag. 0.10E+00    5.2     0.00346028       -74.7647420246  1.19E-02
    97 Broy./Diag. 0.10E+00    5.2     0.01749303       -74.8173732104 -5.26E-02
    98 Broy./Diag. 0.10E+00    5.2     0.01305955       -74.8443146317 -2.69E-02
    99 Broy./Diag. 0.10E+00    5.3     0.02213448       -74.8893839615 -4.51E-02

 *** WARNING in pw/ps_wavelet_methods.F:238 :: Density non-zero on the ***
 *** edges of the unit cell: wrong results in WAVELET solver           ***

   100 Broy./Diag. 0.10E+00    5.3     0.04679039       -75.0185930150 -1.29E-01

 *** WARNING in pw/ps_wavelet_methods.F:238 :: Density non-zero on the ***
 *** edges of the unit cell: wrong results in WAVELET solver           ***

   101 Broy./Diag. 0.10E+00    5.2     0.08322675       -75.0933623526 -7.48E-02
   102 Broy./Diag. 0.10E+00    5.2     0.12446217       -75.0484050888  4.50E-02

 *** WARNING in pw/ps_wavelet_methods.F:238 :: Density non-zero on the ***
 *** edges of the unit cell: wrong results in WAVELET solver           ***

   103 Broy./Diag. 0.10E+00    5.2     0.14584432       -75.0801703511 -3.18E-02

 *** WARNING in pw/ps_wavelet_methods.F:238 :: Density non-zero on the ***
 *** edges of the unit cell: wrong results in WAVELET solver           ***

   104 Broy./Diag. 0.10E+00    5.2     0.14491841       -75.0602773702  1.99E-02
   105 Broy./Diag. 0.10E+00    5.2     0.04206813       -74.8687443812  1.92E-01
   106 Broy./Diag. 0.10E+00    5.3     0.07045274       -74.9495102141 -8.08E-02
   107 Broy./Diag. 0.10E+00    5.2     0.09363270       -75.0255102423 -7.60E-02
   108 Broy./Diag. 0.10E+00    5.3     0.05316560       -74.9823409273  4.32E-02
   109 Broy./Diag. 0.10E+00    5.2     0.12526376       -74.8027292640  1.80E-01
   110 Broy./Diag. 0.10E+00    5.2     0.17061197       -74.8392784847 -3.65E-02
   111 Broy./Diag. 0.10E+00    5.3     0.20383024       -74.7698189976  6.95E-02
   112 Broy./Diag. 0.10E+00    5.2     0.08849642       -74.7744787344 -4.66E-03
   113 Broy./Diag. 0.10E+00    5.2     0.03971963       -74.8040331508 -2.96E-02
   114 Broy./Diag. 0.10E+00    5.2     0.02740846       -74.8037387696  2.94E-04
   115 Broy./Diag. 0.10E+00    5.2     0.02312271       -74.7964741336  7.26E-03
   116 Broy./Diag. 0.10E+00    5.2     0.01724501       -74.7951586451  1.32E-03
   117 Broy./Diag. 0.10E+00    5.3     0.01354701       -74.8074414650 -1.23E-02
   118 Broy./Diag. 0.10E+00    5.2     0.01140555       -74.8147264248 -7.28E-03
   119 Broy./Diag. 0.10E+00    5.2     0.06829618       -75.0153579720 -2.01E-01

 *** WARNING in pw/ps_wavelet_methods.F:238 :: Density non-zero on the ***
 *** edges of the unit cell: wrong results in WAVELET solver           ***

   120 Broy./Diag. 0.10E+00    5.3     0.15291023       -75.0142583386  1.10E-03

 *** WARNING in pw/ps_wavelet_methods.F:238 :: Density non-zero on the ***
 *** edges of the unit cell: wrong results in WAVELET solver           ***

   121 Broy./Diag. 0.10E+00    5.2     0.20336531       -75.0116510286  2.61E-03
   122 Broy./Diag. 0.10E+00    5.2     0.05727842       -74.9349924837  7.67E-02
   123 Broy./Diag. 0.10E+00    5.3     0.03419788       -74.9348321696  1.60E-04
   124 Broy./Diag. 0.10E+00    5.2     0.05050097       -74.9163951822  1.84E-02
   125 Broy./Diag. 0.10E+00    5.2     0.04690584       -74.8743094181  4.21E-02
   126 Broy./Diag. 0.10E+00    5.2     0.04928054       -74.9340004046 -5.97E-02
   127 Broy./Diag. 0.10E+00    5.2     0.13404461       -74.8596215325  7.44E-02
   128 Broy./Diag. 0.10E+00    5.2     0.09271559       -74.9551185827 -9.55E-02
   129 Broy./Diag. 0.10E+00    5.2     0.10467784       -74.7824009796  1.73E-01
   130 Broy./Diag. 0.10E+00    5.2     0.06334141       -74.8232188904 -4.08E-02

 *** WARNING in pw/ps_wavelet_methods.F:238 :: Density non-zero on the ***
 *** edges of the unit cell: wrong results in WAVELET solver           ***

   131 Broy./Diag. 0.10E+00    5.2     0.04841898       -74.9013456353 -7.81E-02
   132 Broy./Diag. 0.10E+00    5.2     0.02379628       -74.8921028806  9.24E-03

 *** WARNING in pw/ps_wavelet_methods.F:238 :: Density non-zero on the ***
 *** edges of the unit cell: wrong results in WAVELET solver           ***

   133 Broy./Diag. 0.10E+00    5.3     0.09310604       -74.9045842057 -1.25E-02
   134 Broy./Diag. 0.10E+00    5.2     0.16985707       -74.8844074189  2.02E-02
   135 Broy./Diag. 0.10E+00    5.2     0.03808829       -74.8475144250  3.69E-02
   136 Broy./Diag. 0.10E+00    5.2     0.09496495       -74.9066222160 -5.91E-02
   137 Broy./Diag. 0.10E+00    5.2     0.18327508       -74.9111265236 -4.50E-03
   138 Broy./Diag. 0.10E+00    5.2     0.13264405       -74.9167068296 -5.58E-03
   139 Broy./Diag. 0.10E+00    5.3     0.07556911       -74.9175678165 -8.61E-04
   140 Broy./Diag. 0.10E+00    5.3     0.05076692       -74.9239108949 -6.34E-03
   141 Broy./Diag. 0.10E+00    5.2     0.03512232       -74.9576241094 -3.37E-02
   142 Broy./Diag. 0.10E+00    5.2     0.02376976       -74.9693530615 -1.17E-02
   143 Broy./Diag. 0.10E+00    5.2     0.02070820       -74.9579549752  1.14E-02
   144 Broy./Diag. 0.10E+00    5.2     0.02089899       -74.9582029535 -2.48E-04
   145 Broy./Diag. 0.10E+00    5.3     0.02632353       -74.9453893662  1.28E-02
   146 Broy./Diag. 0.10E+00    5.2     0.02762496       -74.9388651226  6.52E-03
   147 Broy./Diag. 0.10E+00    5.2     0.04832039       -74.9152025866  2.37E-02
   148 Broy./Diag. 0.10E+00    5.2     0.04827082       -74.9065873404  8.62E-03
   149 Broy./Diag. 0.10E+00    5.2     0.05849780       -74.9074131690 -8.26E-04
   150 Broy./Diag. 0.10E+00    5.2     0.06691771       -74.9132455550 -5.83E-03
   151 Broy./Diag. 0.10E+00    5.3     0.08106911       -74.9037255273  9.52E-03
   152 Broy./Diag. 0.10E+00    5.2     0.07784764       -74.8946824145  9.04E-03
   153 Broy./Diag. 0.10E+00    5.2     0.09699690       -74.8529070176  4.18E-02
   154 Broy./Diag. 0.10E+00    5.2     0.08041685       -74.8369737130  1.59E-02
   155 Broy./Diag. 0.10E+00    5.2     0.05689387       -74.8308446647  6.13E-03
   156 Broy./Diag. 0.10E+00    5.2     0.03806261       -74.8406775609 -9.83E-03
   157 Broy./Diag. 0.10E+00    5.3     0.02680894       -74.8298958589  1.08E-02
   158 Broy./Diag. 0.10E+00    5.3     0.01424762       -74.8272864068  2.61E-03
   159 Broy./Diag. 0.10E+00    5.2     0.03593553       -74.8509384093 -2.37E-02
   160 Broy./Diag. 0.10E+00    5.2     0.04607299       -74.8699638541 -1.90E-02
   161 Broy./Diag. 0.10E+00    5.2     0.22397713       -74.8946439509 -2.47E-02
   162 Broy./Diag. 0.10E+00    5.3     0.23157548       -74.9054668780 -1.08E-02
   163 Broy./Diag. 0.10E+00    5.3     0.08728191       -74.9018320774  3.63E-03
   164 Broy./Diag. 0.10E+00    5.2     0.05089193       -74.9155047765 -1.37E-02
   165 Broy./Diag. 0.10E+00    5.2     0.08641517       -74.9349779776 -1.95E-02
   166 Broy./Diag. 0.10E+00    5.2     0.08632611       -74.9355974904 -6.20E-04
   167 Broy./Diag. 0.10E+00    5.2     0.03596524       -74.9245348502  1.11E-02
   168 Broy./Diag. 0.10E+00    5.2     0.02263157       -74.9227662610  1.77E-03
   169 Broy./Diag. 0.10E+00    5.2     0.02107327       -74.9164648799  6.30E-03
   170 Broy./Diag. 0.10E+00    5.3     0.01531282       -74.9078120900  8.65E-03
   171 Broy./Diag. 0.10E+00    5.2     0.01541428       -74.8957477454  1.21E-02
   172 Broy./Diag. 0.10E+00    5.2     0.00597154       -74.8988169473 -3.07E-03
   173 Broy./Diag. 0.10E+00    5.2     0.00372421       -74.9009588296 -2.14E-03
   174 Broy./Diag. 0.10E+00    5.3     0.00895685       -74.9017805913 -8.22E-04
   175 Broy./Diag. 0.10E+00    5.2     0.01612307       -74.8974460830  4.33E-03
   176 Broy./Diag. 0.10E+00    5.2     0.01414122       -74.8900415054  7.40E-03
   177 Broy./Diag. 0.10E+00    5.2     0.00983164       -74.8871134708  2.93E-03
   178 Broy./Diag. 0.10E+00    5.2     0.00818564       -74.8885533079 -1.44E-03
   179 Broy./Diag. 0.10E+00    5.3     0.00693879       -74.8849716226  3.58E-03
   180 Broy./Diag. 0.10E+00    5.2     0.00879758       -74.8865769986 -1.61E-03
   181 Broy./Diag. 0.10E+00    5.2     0.00988194       -74.8877838693 -1.21E-03
   182 Broy./Diag. 0.10E+00    5.2     0.01316675       -74.8877901369 -6.27E-06
   183 Broy./Diag. 0.10E+00    5.3     0.01617444       -74.8862995951  1.49E-03
   184 Broy./Diag. 0.10E+00    5.2     0.01638765       -74.8831715192  3.13E-03
   185 Broy./Diag. 0.10E+00    5.3     0.01812946       -74.8823326528  8.39E-04
   186 Broy./Diag. 0.10E+00    5.3     0.02286167       -74.8828726391 -5.40E-04
   187 Broy./Diag. 0.10E+00    5.2     0.02877459       -74.8862100384 -3.34E-03
   188 Broy./Diag. 0.10E+00    5.2     0.03702514       -74.8794602342  6.75E-03
   189 Broy./Diag. 0.10E+00    5.4     0.05252253       -74.8798572206 -3.97E-04
   190 Broy./Diag. 0.10E+00    5.2     0.07700107       -74.8727880270  7.07E-03
   191 Broy./Diag. 0.10E+00    5.3     0.10071972       -74.8627700174  1.00E-02
   192 Broy./Diag. 0.10E+00    5.3     0.10201605       -74.8515107975  1.13E-02
   193 Broy./Diag. 0.10E+00    5.2     0.09522596       -74.8409647383  1.05E-02
   194 Broy./Diag. 0.10E+00    5.2     0.08742025       -74.8145709934  2.64E-02
   195 Broy./Diag. 0.10E+00    5.3     0.07814161       -74.8200634963 -5.49E-03
   196 Broy./Diag. 0.10E+00    5.3     0.05359694       -74.8216118897 -1.55E-03
   197 Broy./Diag. 0.10E+00    5.3     0.04319139       -74.8222889402 -6.77E-04
   198 Broy./Diag. 0.10E+00    5.2     0.03629525       -74.8185461784  3.74E-03
   199 Broy./Diag. 0.10E+00    5.2     0.03267696       -74.8133872190  5.16E-03
   200 Broy./Diag. 0.10E+00    5.2     0.02970445       -74.8133627515  2.45E-05
   201 Broy./Diag. 0.10E+00    5.2     0.04754887       -74.8320741447 -1.87E-02
   202 Broy./Diag. 0.10E+00    5.3     0.06463547       -74.8491382278 -1.71E-02
   203 Broy./Diag. 0.10E+00    5.2     0.07142590       -74.8478966896  1.24E-03
   204 Broy./Diag. 0.10E+00    5.2     0.07074243       -74.8542669509 -6.37E-03
   205 Broy./Diag. 0.10E+00    5.2     0.04845405       -74.8413818122  1.29E-02
   206 Broy./Diag. 0.10E+00    5.3     0.09975155       -74.8856603161 -4.43E-02
   207 Broy./Diag. 0.10E+00    5.2     0.07710617       -74.8232676926  6.24E-02
   208 Broy./Diag. 0.10E+00    5.3     0.04054933       -74.8594878414 -3.62E-02
   209 Broy./Diag. 0.10E+00    5.2     0.04236164       -74.9964350990 -1.37E-01
   210 Broy./Diag. 0.10E+00    5.2     0.05699849       -75.1014938374 -1.05E-01
   211 Broy./Diag. 0.10E+00    5.2     0.05625696       -75.1338012647 -3.23E-02
   212 Broy./Diag. 0.10E+00    5.2     0.07182526       -75.0739746755  5.98E-02
   213 Broy./Diag. 0.10E+00    5.2     0.13272614       -75.0737656262  2.09E-04
   214 Broy./Diag. 0.10E+00    5.3     0.16978754       -75.0735638953  2.02E-04
   215 Broy./Diag. 0.10E+00    5.2     0.07194412       -75.0197503348  5.38E-02
   216 Broy./Diag. 0.10E+00    5.2     0.05401495       -75.0337328219 -1.40E-02
   217 Broy./Diag. 0.10E+00    5.2     0.07413886       -75.0412682347 -7.54E-03
   218 Broy./Diag. 0.10E+00    5.2     0.06363009       -75.0264288249  1.48E-02
   219 Broy./Diag. 0.10E+00    5.3     0.04781753       -74.9791354742  4.73E-02
   220 Broy./Diag. 0.10E+00    5.4     0.03250896       -74.9357954099  4.33E-02
   221 Broy./Diag. 0.10E+00    5.3     0.02006411       -74.8967204070  3.91E-02
   222 Broy./Diag. 0.10E+00    5.3     0.01649633       -74.8880818815  8.64E-03
   223 Broy./Diag. 0.10E+00    5.2     0.02036790       -74.9082539050 -2.02E-02
   224 Broy./Diag. 0.10E+00    5.2     0.02428291       -74.9108923241 -2.64E-03
   225 Broy./Diag. 0.10E+00    5.2     0.02765183       -74.8988398316  1.21E-02
   226 Broy./Diag. 0.10E+00    5.3     0.02996995       -74.8940732171  4.77E-03
   227 Broy./Diag. 0.10E+00    5.2     0.04460116       -74.8918734732  2.20E-03
   228 Broy./Diag. 0.10E+00    5.2     0.06558726       -74.9110524668 -1.92E-02
   229 Broy./Diag. 0.10E+00    5.3     0.06656825       -74.9117405258 -6.88E-04
   230 Broy./Diag. 0.10E+00    5.3     0.04698451       -74.9052638870  6.48E-03
   231 Broy./Diag. 0.10E+00    5.2     0.05718766       -74.8937027079  1.16E-02
   232 Broy./Diag. 0.10E+00    5.2     0.05913497       -74.8843294523  9.37E-03
   233 Broy./Diag. 0.10E+00    5.3     0.06059410       -74.8769529702  7.38E-03
   234 Broy./Diag. 0.10E+00    5.3     0.06187030       -74.8608513450  1.61E-02
   235 Broy./Diag. 0.10E+00    5.2     0.05964757       -74.8427019356  1.81E-02
   236 Broy./Diag. 0.10E+00    5.3     0.08317115       -74.8159090130  2.68E-02
   237 Broy./Diag. 0.10E+00    5.3     0.06342270       -74.8082345337  7.67E-03
   238 Broy./Diag. 0.10E+00    5.2     0.05102989       -74.8150970564 -6.86E-03
   239 Broy./Diag. 0.10E+00    5.3     0.02718434       -74.8225099638 -7.41E-03
   240 Broy./Diag. 0.10E+00    5.3     0.02838760       -74.8409391740 -1.84E-02
   241 Broy./Diag. 0.10E+00    5.2     0.01885555       -74.8617357201 -2.08E-02
   242 Broy./Diag. 0.10E+00    5.2     0.01965226       -74.8846705339 -2.29E-02
   243 Broy./Diag. 0.10E+00    5.2     0.06098343       -74.9079213385 -2.33E-02
   244 Broy./Diag. 0.10E+00    5.2     0.11604003       -74.9200379966 -1.21E-02
   245 Broy./Diag. 0.10E+00    5.2     0.14580609       -74.9212495854 -1.21E-03
   246 Broy./Diag. 0.10E+00    5.2     0.10050072       -74.9162029500  5.05E-03
   247 Broy./Diag. 0.10E+00    5.2     0.06541874       -74.9125044702  3.70E-03
   248 Broy./Diag. 0.10E+00    5.2     0.04709325       -74.9155425288 -3.04E-03
   249 Broy./Diag. 0.10E+00    5.2     0.07657490       -74.9330284116 -1.75E-02
   250 Broy./Diag. 0.10E+00    5.2     0.06858007       -74.9437668296 -1.07E-02
   251 Broy./Diag. 0.10E+00    5.2     0.05250209       -74.9426680092  1.10E-03
   252 Broy./Diag. 0.10E+00    5.2     0.03395909       -74.9370995033  5.57E-03
   253 Broy./Diag. 0.10E+00    5.2     0.02054719       -74.9314388770  5.66E-03
   254 Broy./Diag. 0.10E+00    5.4     0.02359965       -74.9232417911  8.20E-03
   255 Broy./Diag. 0.10E+00    5.3     0.02382010       -74.9163630067  6.88E-03
   256 Broy./Diag. 0.10E+00    5.2     0.02473346       -74.9149096493  1.45E-03
   257 Broy./Diag. 0.10E+00    5.2     0.05699716       -74.8966440947  1.83E-02
   258 Broy./Diag. 0.10E+00    5.2     0.07685950       -74.8923488944  4.30E-03
   259 Broy./Diag. 0.10E+00    5.3     0.11701700       -74.8769268214  1.54E-02
   260 Broy./Diag. 0.10E+00    5.3     0.11907703       -74.8620084212  1.49E-02
   261 Broy./Diag. 0.10E+00    5.2     0.09490530       -74.8497252402  1.23E-02
   262 Broy./Diag. 0.10E+00    5.2     0.05448202       -74.8461736073  3.55E-03
   263 Broy./Diag. 0.10E+00    5.2     0.02837772       -74.8443878552  1.79E-03
   264 Broy./Diag. 0.10E+00    5.4     0.03023377       -74.8333623225  1.10E-02
   265 Broy./Diag. 0.10E+00    5.3     0.02235216       -74.8303594083  3.00E-03
   266 Broy./Diag. 0.10E+00    5.4     0.01549528       -74.8254616002  4.90E-03
   267 Broy./Diag. 0.10E+00    5.2     0.00728947       -74.8414270815 -1.60E-02
   268 Broy./Diag. 0.10E+00    5.2     0.00942238       -74.8225394531  1.89E-02
   269 Broy./Diag. 0.10E+00    5.2     0.12855690       -74.8527476754 -3.02E-02
   270 Broy./Diag. 0.10E+00    5.2     0.27709087       -74.8638625435 -1.11E-02
   271 Broy./Diag. 0.10E+00    5.2     0.13462407       -74.8722099606 -8.35E-03
   272 Broy./Diag. 0.10E+00    5.2     0.05034863       -74.8801237181 -7.91E-03
   273 Broy./Diag. 0.10E+00    5.2     0.02922913       -74.8971392405 -1.70E-02
   274 Broy./Diag. 0.10E+00    5.2     0.08064405       -74.9577061157 -6.06E-02
   275 Broy./Diag. 0.10E+00    5.3     0.05286756       -74.9489333585  8.77E-03
   276 Broy./Diag. 0.10E+00    5.2     0.01532470       -74.9482352025  6.98E-04
   277 Broy./Diag. 0.10E+00    5.3     0.05075939       -74.9508061420 -2.57E-03
   278 Broy./Diag. 0.10E+00    5.2     0.03121275       -74.9770373626 -2.62E-02
   279 Broy./Diag. 0.10E+00    5.2     0.02897673       -74.9926210283 -1.56E-02
   280 Broy./Diag. 0.10E+00    5.2     0.03319082       -74.9706617110  2.20E-02
   281 Broy./Diag. 0.10E+00    5.2     0.01981320       -74.9559719008  1.47E-02
   282 Broy./Diag. 0.10E+00    5.2     0.01818824       -74.9364672944  1.95E-02
   283 Broy./Diag. 0.10E+00    5.2     0.01453906       -74.9202082513  1.63E-02
   284 Broy./Diag. 0.10E+00    5.2     0.00606371       -74.9123267309  7.88E-03
   285 Broy./Diag. 0.10E+00    5.3     0.00422873       -74.9128216429 -4.95E-04
   286 Broy./Diag. 0.10E+00    5.2     0.02012025       -74.8998411595  1.30E-02
   287 Broy./Diag. 0.10E+00    5.2     0.01380785       -74.8921355732  7.71E-03
   288 Broy./Diag. 0.10E+00    5.2     0.01261155       -74.8963048271 -4.17E-03
   289 Broy./Diag. 0.10E+00    5.2     0.01369718       -74.8974501431 -1.15E-03
   290 Broy./Diag. 0.10E+00    5.2     0.00606270       -74.8964602750  9.90E-04
   291 Broy./Diag. 0.10E+00    5.2     0.00682220       -74.8961533578  3.07E-04
   292 Broy./Diag. 0.10E+00    5.2     0.00245898       -74.8901771627  5.98E-03
   293 Broy./Diag. 0.10E+00    5.2     0.00332700       -74.8892929994  8.84E-04
   294 Broy./Diag. 0.10E+00    5.3     0.00733216       -74.8896723120 -3.79E-04
   295 Broy./Diag. 0.10E+00    5.3     0.00982993       -74.8895121716  1.60E-04
   296 Broy./Diag. 0.10E+00    5.2     0.01099153       -74.8883151279  1.20E-03
   297 Broy./Diag. 0.10E+00    5.3     0.01458386       -74.8885044414 -1.89E-04
   298 Broy./Diag. 0.10E+00    5.2     0.01443654       -74.8891587631 -6.54E-04
   299 Broy./Diag. 0.10E+00    5.3     0.02613866       -74.8870271674  2.13E-03
   300 Broy./Diag. 0.10E+00    5.3     0.04749924       -74.8844680104  2.56E-03
   301 Broy./Diag. 0.10E+00    5.2     0.05487885       -74.8779851881  6.48E-03
   302 Broy./Diag. 0.10E+00    5.2     0.07254395       -74.8688654567  9.12E-03
   303 Broy./Diag. 0.10E+00    5.2     0.09397060       -74.8563006673  1.26E-02
   304 Broy./Diag. 0.10E+00    5.2     0.09795429       -74.8401825379  1.61E-02
   305 Broy./Diag. 0.10E+00    5.3     0.08811954       -74.8226829343  1.75E-02
   306 Broy./Diag. 0.10E+00    5.3     0.06972159       -74.8079746555  1.47E-02
   307 Broy./Diag. 0.10E+00    5.2     0.06619372       -74.8061438865  1.83E-03
   308 Broy./Diag. 0.10E+00    5.2     0.06382344       -74.8095726181 -3.43E-03
   309 Broy./Diag. 0.10E+00    5.2     0.04367700       -74.8041317107  5.44E-03
   310 Broy./Diag. 0.10E+00    5.2     0.03510672       -74.7949855045  9.15E-03
   311 Broy./Diag. 0.10E+00    5.2     0.03469729       -74.7863591459  8.63E-03
   312 Broy./Diag. 0.10E+00    5.2     0.03503301       -74.7825399832  3.82E-03
   313 Broy./Diag. 0.10E+00    5.2     0.03806888       -74.7813088421  1.23E-03
   314 Broy./Diag. 0.10E+00    5.2     0.04503173       -74.7730351627  8.27E-03
   315 Broy./Diag. 0.10E+00    5.2     0.08256344       -74.7811587624 -8.12E-03
   316 Broy./Diag. 0.10E+00    5.2     0.07634165       -74.8714548242 -9.03E-02
   317 Broy./Diag. 0.10E+00    5.2     0.07997290       -74.9206992434 -4.92E-02
   318 Broy./Diag. 0.10E+00    5.2     0.07605196       -74.9194649540  1.23E-03
   319 Broy./Diag. 0.10E+00    5.2     0.11710551       -74.9600843104 -4.06E-02
   320 Broy./Diag. 0.10E+00    5.2     0.12301143       -74.9723972051 -1.23E-02
   321 Broy./Diag. 0.10E+00    5.3     0.06282379       -74.8715283715  1.01E-01
   322 Broy./Diag. 0.10E+00    5.3     0.03370117       -74.8518986079  1.96E-02
   323 Broy./Diag. 0.10E+00    5.4     0.04009866       -74.8693683864 -1.75E-02
   324 Broy./Diag. 0.10E+00    5.2     0.04567688       -74.8851030692 -1.57E-02
   325 Broy./Diag. 0.10E+00    5.2     0.02942609       -74.8780726183  7.03E-03
   326 Broy./Diag. 0.10E+00    5.2     0.03233280       -74.8623991819  1.57E-02
   327 Broy./Diag. 0.10E+00    5.2     0.03614409       -74.8761483276 -1.37E-02
   328 Broy./Diag. 0.10E+00    5.3     0.03958947       -74.8828737820 -6.73E-03
   329 Broy./Diag. 0.10E+00    5.3     0.02714061       -74.8755080381  7.37E-03
   330 Broy./Diag. 0.10E+00    5.2     0.02714778       -74.8786966990 -3.19E-03
   331 Broy./Diag. 0.10E+00    5.2     0.03362875       -74.8804214586 -1.72E-03
   332 Broy./Diag. 0.10E+00    5.2     0.04597772       -74.8827768529 -2.36E-03
   333 Broy./Diag. 0.10E+00    5.2     0.06168490       -74.8822592858  5.18E-04
   334 Broy./Diag. 0.10E+00    5.3     0.06966777       -74.8817028291  5.56E-04
   335 Broy./Diag. 0.10E+00    5.2     0.06833693       -74.8761161087  5.59E-03
   336 Broy./Diag. 0.10E+00    5.2     0.06611749       -74.8650096922  1.11E-02
   337 Broy./Diag. 0.10E+00    5.2     0.07218324       -74.8533637884  1.16E-02
   338 Broy./Diag. 0.10E+00    5.2     0.06749301       -74.8409569073  1.24E-02
   339 Broy./Diag. 0.10E+00    5.3     0.06115173       -74.8279901664  1.30E-02
   340 Broy./Diag. 0.10E+00    5.3     0.05263459       -74.8161257867  1.19E-02
   341 Broy./Diag. 0.10E+00    5.2     0.04539001       -74.8076224443  8.50E-03
   342 Broy./Diag. 0.10E+00    5.2     0.04006551       -74.7970587313  1.06E-02
   343 Broy./Diag. 0.10E+00    5.2     0.03319646       -74.7939183828  3.14E-03
   344 Broy./Diag. 0.10E+00    5.2     0.03068771       -74.7973431242 -3.42E-03
   345 Broy./Diag. 0.10E+00    5.3     0.03017234       -74.7930148650  4.33E-03
   346 Broy./Diag. 0.10E+00    5.2     0.03208997       -74.8164807748 -2.35E-02
   347 Broy./Diag. 0.10E+00    5.3     0.04058775       -74.8492024954 -3.27E-02
   348 Broy./Diag. 0.10E+00    5.2     0.04057189       -74.8749057792 -2.57E-02
   349 Broy./Diag. 0.10E+00    5.2     0.02947293       -74.8971475187 -2.22E-02
   350 Broy./Diag. 0.10E+00    5.2     0.05626899       -74.9005641520 -3.42E-03
   351 Broy./Diag. 0.10E+00    5.3     0.03394221       -74.8867759365  1.38E-02
   352 Broy./Diag. 0.10E+00    5.3     0.01788768       -74.9001744022 -1.34E-02
   353 Broy./Diag. 0.10E+00    5.2     0.02673774       -74.9358098750 -3.56E-02
   354 Broy./Diag. 0.10E+00    5.3     0.01166263       -74.9508311519 -1.50E-02
   355 Broy./Diag. 0.10E+00    5.2     0.03089202       -74.9593228223 -8.49E-03
   356 Broy./Diag. 0.10E+00    5.3     0.11599733       -74.9546766523  4.65E-03
   357 Broy./Diag. 0.10E+00    5.3     0.13238342       -74.9222501276  3.24E-02
   358 Broy./Diag. 0.10E+00    5.3     0.12995698       -74.8811062027  4.11E-02
   359 Broy./Diag. 0.10E+00    5.3     0.11574131       -74.8744072662  6.70E-03
   360 Broy./Diag. 0.10E+00    5.2     0.09217538       -74.8845600588 -1.02E-02
   361 Broy./Diag. 0.10E+00    5.2     0.05604698       -74.8873159772 -2.76E-03
   362 Broy./Diag. 0.10E+00    5.2     0.03776922       -74.8854615681  1.85E-03
   363 Broy./Diag. 0.10E+00    5.2     0.02356807       -74.8859843002 -5.23E-04
   364 Broy./Diag. 0.10E+00    5.3     0.01584522       -74.8840102037  1.97E-03
   365 Broy./Diag. 0.10E+00    5.2     0.01777404       -74.8859342401 -1.92E-03
[...]
   418 Broy./Diag. 0.10E+00    5.2     0.04308552       -74.9276790414  1.57E-02
   419 Broy./Diag. 0.10E+00    5.3     0.03437209       -74.9152202040  1.25E-02
   420 Broy./Diag. 0.10E+00    5.2     0.03320752       -74.9170090320 -1.79E-03
   421 Broy./Diag. 0.10E+00    5.2     0.04858882       -74.9002047365  1.68E-02
   422 Broy./Diag. 0.10E+00    5.2     0.04123747       -74.8857268465  1.45E-02
   423 Broy./Diag. 0.10E+00    5.3     0.02656764       -74.8862562172 -5.29E-04
   424 Broy./Diag. 0.10E+00    5.3     0.00986576       -74.9077308925 -2.15E-02
   425 Broy./Diag. 0.10E+00    5.3     0.00798952       -74.9163300309 -8.60E-03
   426 Broy./Diag. 0.10E+00    5.3     0.00817686       -74.9140896537  2.24E-03
   427 Broy./Diag. 0.10E+00    5.3     0.01027701       -74.9154404834 -1.35E-03
   428 Broy./Diag. 0.10E+00    5.2     0.00826829       -74.9184836072 -3.04E-03
   429 Broy./Diag. 0.10E+00    5.2     0.00657830       -74.9213028360 -2.82E-03
   430 Broy./Diag. 0.10E+00    5.2     0.00929715       -74.9216289726 -3.26E-04
   431 Broy./Diag. 0.10E+00    5.3     0.01153411       -74.9183989441  3.23E-03
   432 Broy./Diag. 0.10E+00    5.3     0.01045087       -74.9116353119  6.76E-03
   433 Broy./Diag. 0.10E+00    5.3     0.01066663       -74.9089019098  2.73E-03
   434 Broy./Diag. 0.10E+00    5.4     0.01489204       -74.9080934473  8.08E-04
   435 Broy./Diag. 0.10E+00    5.2     0.01924357       -74.9068205839  1.27E-03
   436 Broy./Diag. 0.10E+00    5.3     0.02521959       -74.9057242790  1.10E-03
   437 Broy./Diag. 0.10E+00    5.3     0.03287568       -74.9049109570  8.13E-04
   438 Broy./Diag. 0.10E+00    5.2     0.03935202       -74.9032850121  1.63E-03
   439 Broy./Diag. 0.10E+00    5.2     0.05394776       -74.8984249166  4.86E-03
   440 Broy./Diag. 0.10E+00    5.3     0.07785020       -74.8902489684  8.18E-03
   441 Broy./Diag. 0.10E+00    5.2     0.09710350       -74.8790844603  1.12E-02
   442 Broy./Diag. 0.10E+00    5.3     0.10232772       -74.8644181562  1.47E-02
   443 Broy./Diag. 0.10E+00    5.3     0.09199999       -74.8490492254  1.54E-02
   444 Broy./Diag. 0.10E+00    5.3     0.07304308       -74.8328988399  1.62E-02
   445 Broy./Diag. 0.10E+00    5.2     0.05297591       -74.8198781291  1.30E-02
   446 Broy./Diag. 0.10E+00    5.2     0.03623990       -74.8119310213  7.95E-03
   447 Broy./Diag. 0.10E+00    5.2     0.03032677       -74.8084507192  3.48E-03
   448 Broy./Diag. 0.10E+00    5.2     0.02666013       -74.8056573820  2.79E-03
   449 Broy./Diag. 0.10E+00    5.3     0.02439317       -74.8016340487  4.02E-03
   450 Broy./Diag. 0.10E+00    5.3     0.02710602       -74.7979968044  3.64E-03
   451 Broy./Diag. 0.10E+00    5.2     0.03381831       -74.8014060817 -3.41E-03
   452 Broy./Diag. 0.10E+00    5.3     0.03636464       -74.8050499537 -3.64E-03
   453 Broy./Diag. 0.10E+00    5.3     0.05789577       -74.7994942661  5.56E-03
   454 Broy./Diag. 0.10E+00    5.3     0.07657400       -74.7785061583  2.10E-02
   455 Broy./Diag. 0.10E+00    5.2     0.06379094       -74.7623596635  1.61E-02
   456 Broy./Diag. 0.10E+00    5.2     0.06626926       -74.7772796241 -1.49E-02
   457 Broy./Diag. 0.10E+00    5.3     0.05369401       -74.7939435827 -1.67E-02
   458 Broy./Diag. 0.10E+00    5.2     0.03928251       -74.8279239250 -3.40E-02
   459 Broy./Diag. 0.10E+00    5.4     0.05237544       -74.8498962444 -2.20E-02
   460 Broy./Diag. 0.10E+00    5.3     0.07332508       -74.8831281113 -3.32E-02
   461 Broy./Diag. 0.10E+00    5.3     0.09465602       -74.9084760219 -2.53E-02
   462 Broy./Diag. 0.10E+00    5.2     0.10817638       -74.9315939678 -2.31E-02
   463 Broy./Diag. 0.10E+00    5.2     0.13238176       -74.9563572646 -2.48E-02
   464 Broy./Diag. 0.10E+00    5.2     0.13354706       -75.0423773413 -8.60E-02
   465 Broy./Diag. 0.10E+00    5.3     0.06325797       -75.0155953838  2.68E-02
   466 Broy./Diag. 0.10E+00    5.3     0.04055127       -75.0191461395 -3.55E-03
   467 Broy./Diag. 0.10E+00    5.2     0.06221353       -74.9822183909  3.69E-02
   468 Broy./Diag. 0.10E+00    5.3     0.07270733       -74.9497441156  3.25E-02
   469 Broy./Diag. 0.10E+00    5.3     0.07809853       -74.9276143003  2.21E-02
   470 Broy./Diag. 0.10E+00    5.2     0.04070608       -74.9460005244 -1.84E-02
   471 Broy./Diag. 0.10E+00    5.3     0.06052739       -74.9221176323  2.39E-02
   472 Broy./Diag. 0.10E+00    5.2     0.05437585       -74.9399506984 -1.78E-02
   473 Broy./Diag. 0.10E+00    5.3     0.06474861       -74.9224154357  1.75E-02
   474 Broy./Diag. 0.10E+00    5.2     0.08500591       -74.8866484047  3.58E-02
   475 Broy./Diag. 0.10E+00    5.2     0.08780239       -74.9184702419 -3.18E-02
   476 Broy./Diag. 0.10E+00    5.3     0.10592821       -74.8209253127  9.75E-02
   477 Broy./Diag. 0.10E+00    5.3     0.15138693       -74.8270631928 -6.14E-03
   478 Broy./Diag. 0.10E+00    5.2     0.15832669       -74.8320445917 -4.98E-03
   479 Broy./Diag. 0.10E+00    5.3     0.12502464       -74.8438414127 -1.18E-02
   480 Broy./Diag. 0.10E+00    5.2     0.11315079       -74.8770251642 -3.32E-02
   481 Broy./Diag. 0.10E+00    5.2     0.10673330       -74.9298031891 -5.28E-02
   482 Broy./Diag. 0.10E+00    5.2     0.09387764       -74.9603015346 -3.05E-02
   483 Broy./Diag. 0.10E+00    5.3     0.08194705       -74.9459141281  1.44E-02
   484 Broy./Diag. 0.10E+00    5.3     0.07403897       -74.9495149067 -3.60E-03
   485 Broy./Diag. 0.10E+00    5.2     0.05466669       -74.9421792181  7.34E-03
   486 Broy./Diag. 0.10E+00    5.3     0.05231228       -74.9364691472  5.71E-03
   487 Broy./Diag. 0.10E+00    5.2     0.05084376       -74.9467737446 -1.03E-02
   488 Broy./Diag. 0.10E+00    5.3     0.03981440       -74.9578868388 -1.11E-02
   489 Broy./Diag. 0.10E+00    5.3     0.04359987       -74.9616164210 -3.73E-03
   490 Broy./Diag. 0.10E+00    5.3     0.04380819       -74.9555399356  6.08E-03
   491 Broy./Diag. 0.10E+00    5.3     0.08218765       -74.9425773087  1.30E-02
   492 Broy./Diag. 0.10E+00    5.3     0.05230605       -74.9003004874  4.23E-02
   493 Broy./Diag. 0.10E+00    5.3     0.06413130       -74.8864609992  1.38E-02
   494 Broy./Diag. 0.10E+00    5.4     0.08895444       -74.9235883972 -3.71E-02
   495 Broy./Diag. 0.10E+00    5.2     0.05744990       -74.9650877901 -4.15E-02
   496 Broy./Diag. 0.10E+00    5.2     0.05304462       -74.9883789571 -2.33E-02
   497 Broy./Diag. 0.10E+00    5.2     0.05045653       -74.9932408399 -4.86E-03
   498 Broy./Diag. 0.10E+00    5.3     0.06914988       -74.9819034015  1.13E-02
   499 Broy./Diag. 0.10E+00    5.3     0.04622682       -74.9927771085 -1.09E-02
   500 Broy./Diag. 0.10E+00    5.3     0.05517959       -74.9697727925  2.30E-02

  Leaving inner SCF loop after reaching   500 steps.


  Electronic density on regular grids:         -8.7748195159        3.2251804841
  Core density on regular grids:               12.0000000000        0.0000000000
  Hard and soft densities (Lebedev):          -23.8702503204      -20.6469427079
  Total Rho_soft + Rho1_hard - Rho1_soft      -11.9981271284
  Total charge density (r-space):               0.0018728716
  Total Rho_soft + Rho0_soft (g-space):         0.0018727816

  Overlap energy of the core charge distribution:               0.00003125550742
  Self energy of the core charge distribution:                -58.22549323810243
  Core Hamiltonian energy:                                    -14.27561225278312
  Hartree energy:                                              16.64779596883360
  Exchange-correlation energy:                                 -3.04669505005207
  Hartree-Fock Exchange energy:                                -2.53344594088583

  GAPW| Exc from hard and soft atomic rho1:                    -5.01006901837893
  GAPW| local Eh = 1 center integrals:                         -8.52628451664023

  Total energy:                                               -74.96977279250157

 *******************************************************************************
 *   ___                                                                       *
 *  /   \                                                                      *
 * [ABORT]                                                                     *
 *  \___/     SCF run NOT converged. To continue the calculation regardless,   *
 *    |             please set the keyword IGNORE_CONVERGENCE_FAILURE.         *
 *  O/|                                                                        *
 * /| |                                                                        *
 * / \                                                            qs_scf.F:611 *
 *******************************************************************************


 ===== Routine Calling Stack ===== 

            3 scf_env_do_scf
            2 qs_energies
            1 CP2K

 *******************************************************************************
 *   ___                                                                       *
 *  /   \                                                                      *
 * [ABORT]                                                                     *
 *  \___/     SCF run NOT converged. To continue the calculation regardless,   *
 *    |             please set the keyword IGNORE_CONVERGENCE_FAILURE.         *
 *  O/|                                                                        *
 * /| |                                                                        *
 * / \                                                            qs_scf.F:611 *
 *******************************************************************************


 ===== Routine Calling Stack ===== 

            3 scf_env_do_scf
            2 qs_energies
            1 CP2K

 *******************************************************************************
 *   ___                                                                       *
 *  /   \                                                                      *
 * [ABORT]                                                                     *
 *  \___/     SCF run NOT converged. To continue the calculation regardless,   *
 *    |             please set the keyword IGNORE_CONVERGENCE_FAILURE.         *
 *  O/|                                                                        *
 * /| |                                                                        *
 * / \                                                            qs_scf.F:611 *
 *******************************************************************************


 ===== Routine Calling Stack ===== 

            3 scf_env_do_scf
            2 qs_energies
            1 CP2K

 *******************************************************************************
 *   ___                                                                       *
 *  /   \                                                                      *
 * [ABORT]                                                                     *
 *  \___/     SCF run NOT converged. To continue the calculation regardless,   *
 *    |             please set the keyword IGNORE_CONVERGENCE_FAILURE.         *
 *  O/|                                                                        *
 * /| |                                                                        *
 * / \                                                            qs_scf.F:611 *
 *******************************************************************************


 ===== Routine Calling Stack ===== 

            3 scf_env_do_scf
            2 qs_energies
            1 CP2K

 *******************************************************************************
 *   ___                                                                       *
 *  /   \                                                                      *
 * [ABORT]                                                                     *
 *  \___/     SCF run NOT converged. To continue the calculation regardless,   *
 *    |             please set the keyword IGNORE_CONVERGENCE_FAILURE.         *
 *  O/|                                                                        *
 * /| |                                                                        *
 * / \                                                            qs_scf.F:611 *
 *******************************************************************************


 ===== Routine Calling Stack ===== 

            3 scf_env_do_scf
            2 qs_energies
            1 CP2K

 *******************************************************************************
 *   ___                                                                       *
 *  /   \                                                                      *
 * [ABORT]                                                                     *
 *  \___/     SCF run NOT converged. To continue the calculation regardless,   *
 *    |             please set the keyword IGNORE_CONVERGENCE_FAILURE.         *
 *  O/|                                                                        *
 * /| |                                                                        *
 * / \                                                            qs_scf.F:611 *
 *******************************************************************************


 ===== Routine Calling Stack ===== 

            3 scf_env_do_scf
            2 qs_energies
            1 CP2K

 *******************************************************************************
 *   ___                                                                       *
 *  /   \                                                                      *
 * [ABORT]                                                                     *
 *  \___/     SCF run NOT converged. To continue the calculation regardless,   *
 *    |             please set the keyword IGNORE_CONVERGENCE_FAILURE.         *
 *  O/|                                                                        *
 * /| |                                                                        *
 * / \                                                            qs_scf.F:611 *
 *******************************************************************************


 ===== Routine Calling Stack ===== 

            3 scf_env_do_scf
            2 qs_energies
            1 CP2K

 *******************************************************************************
 *   ___                                                                       *
 *  /   \                                                                      *
 * [ABORT]                                                                     *
 *  \___/     SCF run NOT converged. To continue the calculation regardless,   *
 *    |             please set the keyword IGNORE_CONVERGENCE_FAILURE.         *
 *  O/|                                                                        *
 * /| |                                                                        *
 * / \                                                            qs_scf.F:611 *
 *******************************************************************************


 ===== Routine Calling Stack ===== 

            3 scf_env_do_scf
            2 qs_energies
            1 CP2K

 *******************************************************************************
 *   ___                                                                       *
 *  /   \                                                                      *
 * [ABORT]                                                                     *
 *  \___/     SCF run NOT converged. To continue the calculation regardless,   *
 *    |             please set the keyword IGNORE_CONVERGENCE_FAILURE.         *
 *  O/|                                                                        *
 * /| |                                                                        *
 * / \                                                            qs_scf.F:611 *
 *******************************************************************************


 ===== Routine Calling Stack ===== 

            3 scf_env_do_scf
            2 qs_energies
            1 CP2K

 *******************************************************************************
 *   ___                                                                       *
 *  /   \                                                                      *
 * [ABORT]                                                                     *
 *  \___/     SCF run NOT converged. To continue the calculation regardless,   *
 *    |             please set the keyword IGNORE_CONVERGENCE_FAILURE.         *
 *  O/|                                                                        *
 * /| |                                                                        *
 * / \                                                            qs_scf.F:611 *
 *******************************************************************************


 ===== Routine Calling Stack ===== 

            3 scf_env_do_scf
            2 qs_energies
            1 CP2K

 *******************************************************************************
 *   ___                                                                       *
 *  /   \                                                                      *
 * [ABORT]                                                                     *
 *  \___/     SCF run NOT converged. To continue the calculation regardless,   *
 *    |             please set the keyword IGNORE_CONVERGENCE_FAILURE.         *
 *  O/|                                                                        *
 * /| |                                                                        *
 * / \                                                            qs_scf.F:611 *
 *******************************************************************************


 ===== Routine Calling Stack ===== 

            3 scf_env_do_scf
            2 qs_energies
            1 CP2K

 *******************************************************************************
 *   ___                                                                       *
 *  /   \                                                                      *
 * [ABORT]                                                                     *
 *  \___/     SCF run NOT converged. To continue the calculation regardless,   *
 *    |             please set the keyword IGNORE_CONVERGENCE_FAILURE.         *
 *  O/|                                                                        *
 * /| |                                                                        *
 * / \                                                            qs_scf.F:611 *
 *******************************************************************************


 ===== Routine Calling Stack ===== 

            3 scf_env_do_scf
            2 qs_energies
            1 CP2K

 *******************************************************************************
 *   ___                                                                       *
 *  /   \                                                                      *
 * [ABORT]                                                                     *
 *  \___/     SCF run NOT converged. To continue the calculation regardless,   *
 *    |             please set the keyword IGNORE_CONVERGENCE_FAILURE.         *
 *  O/|                                                                        *
 * /| |                                                                        *
 * / \                                                            qs_scf.F:611 *
 *******************************************************************************


 ===== Routine Calling Stack ===== 

            3 scf_env_do_scf
            2 qs_energies
            1 CP2K
