 DBCSR| CPU Multiplication driver                                           BLAS (U)
 DBCSR| Multrec recursion limit                                              512 (U)
 DBCSR| Multiplication stack size                                           1000 (D)
 DBCSR| Maximum elements for images                                    UNLIMITED (U)
 DBCSR| Multiplicative factor virtual images                                   1 (U)
 DBCSR| Use multiplication densification                                       T (D)
 DBCSR| Multiplication size stacks                                             3 (U)
 DBCSR| Use memory pool for CPU allocation                                     F (U)
 DBCSR| Number of 3D layers                                               SINGLE (U)
 DBCSR| Use MPI memory allocation                                              F (U)
 DBCSR| Use RMA algorithm                                                      F (U)
 DBCSR| Use Communication thread                                               T (U)
 DBCSR| Communication thread load                                             75 (D)
 DBCSR| MPI: My process id                                                     0
 DBCSR| MPI: Number of processes                                              24
 DBCSR| OMP: Current number of threads                                         4
 DBCSR| OMP: Max number of threads                                             4
 DBCSR| Split modifier for TAS multiplication algorithm                  1.0E+00 (U)


  **** **** ******  **  PROGRAM STARTED AT               2025-03-08 02:20:54.194
 ***** ** ***  *** **   PROGRAM STARTED ON                          i02r08c05s12
 **    ****   ******    PROGRAM STARTED BY                               di38fab
 ***** **    ** ** **   PROGRAM PROCESS ID                               2431402
  **** **  *******  **  PROGRAM STARTED IN /hppfs/scratch/04/di38fab/05_MOL/W4-1
                                           1+ALK/nh/TZVP

 CP2K| version string:                 CP2K version 2025.1 (Development Version)
 CP2K| source code revision number:                                  git:47877ba
 CP2K| cp2kflags: omp libint fftw3 libxc parallel scalapack max_contr=4         
 CP2K| is freely available from                            https://www.cp2k.org/
 CP2K| Program compiled at                          Thu Feb 20 16:00:34 CET 2025
 CP2K| Program compiled on                                               login04
 CP2K| Program compiled for                                        Supermuc-foss
 CP2K| Data directory path          /hppfs/work/pn36zo/di38fab/newcp2k/cp2k/data
 CP2K| Input file name                                                    GW.inp

 GLOBAL| Force Environment number                                              1
 GLOBAL| Basis set file name            /hppfs/scratch/04/di38fab/04_TMD/BASIS_A
 GLOBAL| Potential file name            /hppfs/work/pn36zo/di38fab/cp2k/data/ALL
 GLOBAL| MM Potential file name                                     MM_POTENTIAL
 GLOBAL| Coordinate file name                                      __STD_INPUT__
 GLOBAL| Method name                                                        CP2K
 GLOBAL| Project name                                                       MoS2
 GLOBAL| Run type                                                         ENERGY
 GLOBAL| FFT library                                                       FFTW3
 GLOBAL| Diagonalization library                                       ScaLAPACK
 GLOBAL| DGEMM library                                                      BLAS
 GLOBAL| Orthonormality check for eigenvectors                          DISABLED
 GLOBAL| Matrix multiplication library                                 ScaLAPACK
 GLOBAL| All-to-all communication in single precision                          F
 GLOBAL| FFTs using library dependent lengths                                  F
 GLOBAL| Grid backend                                                       AUTO
 GLOBAL| Global print level                                               MEDIUM
 GLOBAL| MPI I/O enabled                                                       T
 GLOBAL| Total number of message passing processes                            24
 GLOBAL| Number of threads for this process                                    4
 GLOBAL| This output is from process                                           0
 GLOBAL| OpenMP stack size per thread (OMP_STACKSIZE)                    default
 GLOBAL| CPU model name             Intel(R) Xeon(R) Platinum 8174 CPU @ 3.10GHz

 MEMORY| system memory details [Kb]
 MEMORY|                        rank 0           min           max       average
 MEMORY| MemTotal             98436664      98436664      98436664      98436664
 MEMORY| MemFree              84156128      83935580      84156128      84045854
 MEMORY| Buffers                     0             0             0             0
 MEMORY| Cached                2419080       2419080       2424180       2421630
 MEMORY| Slab                  1231380       1231380       1242436       1236908
 MEMORY| SReclaimable           266268        266268        267024        266646
 MEMORY| MemLikelyFree        86841476      86626784      86841476      86734130


 *** Fundamental physical constants (SI units) ***

 *** Literature: B. J. Mohr and B. N. Taylor,
 ***             CODATA recommended values of the fundamental physical
 ***             constants: 2006, Web Version 5.1
 ***             http://physics.nist.gov/constants

 Speed of light in vacuum [m/s]                             2.99792458000000E+08
 Magnetic constant or permeability of vacuum [N/A**2]       1.25663706143592E-06
 Electric constant or permittivity of vacuum [F/m]          8.85418781762039E-12
 Planck constant (h) [J*s]                                  6.62606896000000E-34
 Planck constant (h-bar) [J*s]                              1.05457162825177E-34
 Elementary charge [C]                                      1.60217648700000E-19
 Electron mass [kg]                                         9.10938215000000E-31
 Electron g factor [ ]                                     -2.00231930436220E+00
 Proton mass [kg]                                           1.67262163700000E-27
 Fine-structure constant                                    7.29735253760000E-03
 Rydberg constant [1/m]                                     1.09737315685270E+07
 Avogadro constant [1/mol]                                  6.02214179000000E+23
 Boltzmann constant [J/K]                                   1.38065040000000E-23
 Atomic mass unit [kg]                                      1.66053878200000E-27
 Bohr radius [m]                                            5.29177208590000E-11

 *** Conversion factors ***

 [u] -> [a.u.]                                              1.82288848426455E+03
 [Angstrom] -> [Bohr] = [a.u.]                              1.88972613288564E+00
 [a.u.] = [Bohr] -> [Angstrom]                              5.29177208590000E-01
 [a.u.] -> [s]                                              2.41888432650478E-17
 [a.u.] -> [fs]                                             2.41888432650478E-02
 [a.u.] -> [J]                                              4.35974393937059E-18
 [a.u.] -> [N]                                              8.23872205491840E-08
 [a.u.] -> [K]                                              3.15774647902944E+05
 [a.u.] -> [kJ/mol]                                         2.62549961709828E+03
 [a.u.] -> [kcal/mol]                                       6.27509468713739E+02
 [a.u.] -> [Pa]                                             2.94210107994716E+13
 [a.u.] -> [bar]                                            2.94210107994716E+08
 [a.u.] -> [atm]                                            2.90362800883016E+08
 [a.u.] -> [eV]                                             2.72113838565563E+01
 [a.u.] -> [Hz]                                             6.57968392072181E+15
 [a.u.] -> [1/cm] (wave numbers)                            2.19474631370540E+05
 [a.u./Bohr**2] -> [1/cm]                                   5.14048714338585E+03
 

 CELL_TOP| Volume [angstrom^3]:                                     27000.000000
 CELL_TOP| Vector a [angstrom    30.000     0.000     0.000   |a| =    30.000000
 CELL_TOP| Vector b [angstrom     0.000    30.000     0.000   |b| =    30.000000
 CELL_TOP| Vector c [angstrom     0.000     0.000    30.000   |c| =    30.000000
 CELL_TOP| Angle (b,c), alpha [degree]:                                90.000000
 CELL_TOP| Angle (a,c), beta  [degree]:                                90.000000
 CELL_TOP| Angle (a,b), gamma [degree]:                                90.000000
 CELL_TOP| Numerically orthorhombic:                                         YES
 CELL_TOP| Periodicity                                                      NONE

 GENERATE|  Preliminary Number of Bonds generated:                             0
 GENERATE|  Achieved consistency in connectivity generation.

 CELL| Volume [angstrom^3]:                                         27000.000000
 CELL| Vector a [angstrom]:      30.000     0.000     0.000   |a| =    30.000000
 CELL| Vector b [angstrom]:       0.000    30.000     0.000   |b| =    30.000000
 CELL| Vector c [angstrom]:       0.000     0.000    30.000   |c| =    30.000000
 CELL| Angle (b,c), alpha [degree]:                                    90.000000
 CELL| Angle (a,c), beta  [degree]:                                    90.000000
 CELL| Angle (a,b), gamma [degree]:                                    90.000000
 CELL| Numerically orthorhombic:                                             YES
 CELL| Periodicity                                                          NONE

 CELL_REF| Volume [angstrom^3]:                                     27000.000000
 CELL_REF| Vector a [angstrom    30.000     0.000     0.000   |a| =    30.000000
 CELL_REF| Vector b [angstrom     0.000    30.000     0.000   |b| =    30.000000
 CELL_REF| Vector c [angstrom     0.000     0.000    30.000   |c| =    30.000000
 CELL_REF| Angle (b,c), alpha [degree]:                                90.000000
 CELL_REF| Angle (a,c), beta  [degree]:                                90.000000
 CELL_REF| Angle (a,b), gamma [degree]:                                90.000000
 CELL_REF| Numerically orthorhombic:                                         YES
 CELL_REF| Periodicity                                                      NONE

 *******************************************************************************
 *******************************************************************************
 **                                                                           **
 **     #####                         ##              ##                      **
 **    ##   ##            ##          ##              ##                      **
 **   ##     ##                       ##            ######                    **
 **   ##     ##  ##   ##  ##   #####  ##  ##   ####   ##    #####    #####    **
 **   ##     ##  ##   ##  ##  ##      ## ##   ##      ##   ##   ##  ##   ##   **
 **   ##  ## ##  ##   ##  ##  ##      ####     ###    ##   ######   ######    **
 **    ##  ###   ##   ##  ##  ##      ## ##      ##   ##   ##       ##        **
 **     #######   #####   ##   #####  ##  ##  ####    ##    #####   ##        **
 **           ##                                                    ##        **
 **                                                                           **
 **                                                ... make the atoms dance   **
 **                                                                           **
 **            Copyright (C) by CP2K developers group (2000-2025)             **
 **                      J. Chem. Phys. 152, 194103 (2020)                    **
 **                                                                           **
 *******************************************************************************

 DFT| Spin restricted Kohn-Sham (RKS) calculation                            RKS
 DFT| Multiplicity                                                             1
 DFT| Number of spin states                                                    1
 DFT| Charge                                                                   0
 DFT| Self-interaction correction (SIC)                                       NO
 DFT| Cutoffs: density                                              1.000000E-10
 DFT|          gradient                                             1.000000E-10
 DFT|          tau                                                  1.000000E-10
 DFT|          cutoff_smoothing_range                               0.000000E+00
 DFT| XC density smoothing                                                  NONE
 DFT| XC derivatives                                                          PW

 FUNCTIONAL| PBE:
 FUNCTIONAL| J.P.Perdew, K.Burke, M.Ernzerhof, Phys. Rev. Letter, vol. 77, n 18,
 FUNCTIONAL|  pp. 3865-3868, (1996)sx=0.750sc=1.000{spin unpolarized}           


 QS| Method:                                                                GAPW
 QS| Density plane wave grid type                        NON-SPHERICAL FULLSPACE
 QS| Number of grid levels:                                                    4
 QS| Density cutoff [a.u.]:                                                250.0
 QS| Multi grid cutoff [a.u.]: 1) grid level                               250.0
 QS|                           2) grid level                                83.3
 QS|                           3) grid level                                27.8
 QS|                           4) grid level                                 9.3
 QS| Grid level progression factor:                                          3.0
 QS| Relative density cutoff [a.u.]:                                        50.0
 QS| Interaction thresholds: eps_pgf_orb:                                1.0E-12
 QS|                         eps_filter_matrix:                          0.0E+00
 QS|                         eps_core_charge:                            1.0E-14
 QS|                         eps_rho_gspace:                             1.0E-12
 QS|                         eps_rho_rspace:                             1.0E-12
 QS|                         eps_gvg_rspace:                             1.0E-06
 QS|                         eps_ppl:                                    1.0E-02
 QS|                         eps_ppnl:                                   1.0E-08
 QS| GAPW|      One center basis from orbital basis primitives
 QS| GAPW|                   eps_fit:                                    1.0E-04
 QS| GAPW|                   eps_iso:                                    1.0E-12
 QS| GAPW|                   eps_svd:                                    1.0E-08
 QS| GAPW|                   eps_cpc:                                    1.0E-12
 QS| GAPW|   atom-r-grid: quadrature:                                     GC_LOG
 QS| GAPW|      atom-s-grid:  max l :                                          8
 QS| GAPW|      max_l_rho0 :                                                   2


 ATOMIC KIND INFORMATION

  1. Atomic kind: N                                     Number of atoms:       1

     Orbital Basis Set                                        aug-TZVP-MOLOPT-ae

       Number of orbital shell sets:                                           2
       Number of orbital shells:                                              16
       Number of primitive Cartesian functions:                               13
       Number of Cartesian basis functions:                                   71
       Number of spherical basis functions:                                   56
       Norm type:                                                              2

       Normalised Cartesian orbitals:

                        Set   Shell   Orbital            Exponent    Coefficient

                          1       1    1s                0.045000       0.000000
                                                         0.113512       0.014500
                                                         0.322032       0.036074
                                                         0.930550      -0.061635
                                                         2.987378       0.535699
                                                         8.608625       2.378505
                                                        49.270190       0.802518

                          1       2    2s                0.045000       0.000000
                                                         0.113512       0.032692
                                                         0.322032       0.082974
                                                         0.930550       0.396674
                                                         2.987378       0.054918
                                                         8.608625      -0.061481
                                                        49.270190      -0.622920

                          1       3    3s                0.045000       0.000000
                                                         0.113512       0.047996
                                                         0.322032       0.306069
                                                         0.930550      -0.408076
                                                         2.987378      -0.229943
                                                         8.608625      -0.870010
                                                        49.270190      -0.366977

                          1       4    4s                0.045000       0.000000
                                                         0.113512       0.171213
                                                         0.322032      -0.186943
                                                         0.930550      -0.188982
                                                         2.987378       0.637930
                                                         8.608625      -0.961511
                                                        49.270190      -7.166333

                          1       5    5s                0.045000       0.096440
                                                         0.113512      -0.064027
                                                         0.322032      -0.041902
                                                         0.930550       0.111692
                                                         2.987378       0.000000
                                                         8.608625       0.000000
                                                        49.270190       0.000000

                          1       6    2px               0.045000       0.000000
                                                         0.113512       0.006367
                                                         0.322032       0.040684
                                                         0.930550       0.811118
                                                         2.987378       1.750760
                                                         8.608625       1.288759
                                                        49.270190      12.161855
                          1       6    2py               0.045000       0.000000
                                                         0.113512       0.006367
                                                         0.322032       0.040684
                                                         0.930550       0.811118
                                                         2.987378       1.750760
                                                         8.608625       1.288759
                                                        49.270190      12.161855
                          1       6    2pz               0.045000       0.000000
                                                         0.113512       0.006367
                                                         0.322032       0.040684
                                                         0.930550       0.811118
                                                         2.987378       1.750760
                                                         8.608625       1.288759
                                                        49.270190      12.161855

                          1       7    3px               0.045000       0.000000
                                                         0.113512       0.011134
                                                         0.322032       0.344073
                                                         0.930550      -0.153789
                                                         2.987378      -0.764833
                                                         8.608625       0.375399
                                                        49.270190     -28.403920
                          1       7    3py               0.045000       0.000000
                                                         0.113512       0.011134
                                                         0.322032       0.344073
                                                         0.930550      -0.153789
                                                         2.987378      -0.764833
                                                         8.608625       0.375399
                                                        49.270190     -28.403920
                          1       7    3pz               0.045000       0.000000
                                                         0.113512       0.011134
                                                         0.322032       0.344073
                                                         0.930550      -0.153789
                                                         2.987378      -0.764833
                                                         8.608625       0.375399
                                                        49.270190     -28.403920

                          1       8    4px               0.045000       0.000000
                                                         0.113512       0.104427
                                                         0.322032      -0.047567
                                                         0.930550      -0.121777
                                                         2.987378      -0.049280
                                                         8.608625      -0.402261
                                                        49.270190       8.328837
                          1       8    4py               0.045000       0.000000
                                                         0.113512       0.104427
                                                         0.322032      -0.047567
                                                         0.930550      -0.121777
                                                         2.987378      -0.049280
                                                         8.608625      -0.402261
                                                        49.270190       8.328837
                          1       8    4pz               0.045000       0.000000
                                                         0.113512       0.104427
                                                         0.322032      -0.047567
                                                         0.930550      -0.121777
                                                         2.987378      -0.049280
                                                         8.608625      -0.402261
                                                        49.270190       8.328837

                          1       9    5px               0.045000       0.002493
                                                         0.113512      -0.112828
                                                         0.322032       0.052724
                                                         0.930550       0.295283
                                                         2.987378       0.000000
                                                         8.608625       0.000000
                                                        49.270190       0.000000
                          1       9    5py               0.045000       0.002493
                                                         0.113512      -0.112828
                                                         0.322032       0.052724
                                                         0.930550       0.295283
                                                         2.987378       0.000000
                                                         8.608625       0.000000
                                                        49.270190       0.000000
                          1       9    5pz               0.045000       0.002493
                                                         0.113512      -0.112828
                                                         0.322032       0.052724
                                                         0.930550       0.295283
                                                         2.987378       0.000000
                                                         8.608625       0.000000
                                                        49.270190       0.000000

                          1      10    3dx2              0.045000       0.000000
                                                         0.113512       0.008426
                                                         0.322032       0.004138
                                                         0.930550       0.975526
                                                         2.987378       4.861216
                                                         8.608625     -15.504622
                                                        49.270190     -47.156995
                          1      10    3dxy              0.045000       0.000000
                                                         0.113512       0.014594
                                                         0.322032       0.007167
                                                         0.930550       1.689661
                                                         2.987378       8.419873
                                                         8.608625     -26.854794
                                                        49.270190     -81.678311
                          1      10    3dxz              0.045000       0.000000
                                                         0.113512       0.014594
                                                         0.322032       0.007167
                                                         0.930550       1.689661
                                                         2.987378       8.419873
                                                         8.608625     -26.854794
                                                        49.270190     -81.678311
                          1      10    3dy2              0.045000       0.000000
                                                         0.113512       0.008426
                                                         0.322032       0.004138
                                                         0.930550       0.975526
                                                         2.987378       4.861216
                                                         8.608625     -15.504622
                                                        49.270190     -47.156995
                          1      10    3dyz              0.045000       0.000000
                                                         0.113512       0.014594
                                                         0.322032       0.007167
                                                         0.930550       1.689661
                                                         2.987378       8.419873
                                                         8.608625     -26.854794
                                                        49.270190     -81.678311
                          1      10    3dz2              0.045000       0.000000
                                                         0.113512       0.008426
                                                         0.322032       0.004138
                                                         0.930550       0.975526
                                                         2.987378       4.861216
                                                         8.608625     -15.504622
                                                        49.270190     -47.156995

                          1      11    4dx2              0.045000       0.000000
                                                         0.113512      -0.007657
                                                         0.322032       0.207542
                                                         0.930550       0.469670
                                                         2.987378      -3.348764
                                                         8.608625      17.703387
                                                        49.270190      69.517765
                          1      11    4dxy              0.045000       0.000000
                                                         0.113512      -0.013263
                                                         0.322032       0.359472
                                                         0.930550       0.813493
                                                         2.987378      -5.800229
                                                         8.608625      30.663165
                                                        49.270190     120.408301
                          1      11    4dxz              0.045000       0.000000
                                                         0.113512      -0.013263
                                                         0.322032       0.359472
                                                         0.930550       0.813493
                                                         2.987378      -5.800229
                                                         8.608625      30.663165
                                                        49.270190     120.408301
                          1      11    4dy2              0.045000       0.000000
                                                         0.113512      -0.007657
                                                         0.322032       0.207542
                                                         0.930550       0.469670
                                                         2.987378      -3.348764
                                                         8.608625      17.703387
                                                        49.270190      69.517765
                          1      11    4dyz              0.045000       0.000000
                                                         0.113512      -0.013263
                                                         0.322032       0.359472
                                                         0.930550       0.813493
                                                         2.987378      -5.800229
                                                         8.608625      30.663165
                                                        49.270190     120.408301
                          1      11    4dz2              0.045000       0.000000
                                                         0.113512      -0.007657
                                                         0.322032       0.207542
                                                         0.930550       0.469670
                                                         2.987378      -3.348764
                                                         8.608625      17.703387
                                                        49.270190      69.517765

                          1      12    5dx2              0.045000      -0.000996
                                                         0.113512       0.002353
                                                         0.322032       0.164897
                                                         0.930550       0.509235
                                                         2.987378       0.000000
                                                         8.608625       0.000000
                                                        49.270190       0.000000
                          1      12    5dxy              0.045000      -0.001726
                                                         0.113512       0.004075
                                                         0.322032       0.285610
                                                         0.930550       0.882020
                                                         2.987378       0.000000
                                                         8.608625       0.000000
                                                        49.270190       0.000000
                          1      12    5dxz              0.045000      -0.001726
                                                         0.113512       0.004075
                                                         0.322032       0.285610
                                                         0.930550       0.882020
                                                         2.987378       0.000000
                                                         8.608625       0.000000
                                                        49.270190       0.000000
                          1      12    5dy2              0.045000      -0.000996
                                                         0.113512       0.002353
                                                         0.322032       0.164897
                                                         0.930550       0.509235
                                                         2.987378       0.000000
                                                         8.608625       0.000000
                                                        49.270190       0.000000
                          1      12    5dyz              0.045000      -0.001726
                                                         0.113512       0.004075
                                                         0.322032       0.285610
                                                         0.930550       0.882020
                                                         2.987378       0.000000
                                                         8.608625       0.000000
                                                        49.270190       0.000000
                          1      12    5dz2              0.045000      -0.000996
                                                         0.113512       0.002353
                                                         0.322032       0.164897
                                                         0.930550       0.509235
                                                         2.987378       0.000000
                                                         8.608625       0.000000
                                                        49.270190       0.000000

                          1      13    4fx3              0.045000       0.000000
                                                         0.113512       0.000350
                                                         0.322032       0.026408
                                                         0.930550       1.022795
                                                         2.987378       1.277764
                                                         8.608625      -7.108652
                                                        49.270190     240.939937
                          1      13    4fx2y             0.045000       0.000000
                                                         0.113512       0.000782
                                                         0.322032       0.059050
                                                         0.930550       2.287038
                                                         2.987378       2.857166
                                                         8.608625     -15.895429
                                                        49.270190     538.758077
                          1      13    4fx2z             0.045000       0.000000
                                                         0.113512       0.000782
                                                         0.322032       0.059050
                                                         0.930550       2.287038
                                                         2.987378       2.857166
                                                         8.608625     -15.895429
                                                        49.270190     538.758077
                          1      13    4fxy2             0.045000       0.000000
                                                         0.113512       0.000782
                                                         0.322032       0.059050
                                                         0.930550       2.287038
                                                         2.987378       2.857166
                                                         8.608625     -15.895429
                                                        49.270190     538.758077
                          1      13    4fxyz             0.045000       0.000000
                                                         0.113512       0.001354
                                                         0.322032       0.102278
                                                         0.930550       3.961267
                                                         2.987378       4.948757
                                                         8.608625     -27.531691
                                                        49.270190     933.156362
                          1      13    4fxz2             0.045000       0.000000
                                                         0.113512       0.000782
                                                         0.322032       0.059050
                                                         0.930550       2.287038
                                                         2.987378       2.857166
                                                         8.608625     -15.895429
                                                        49.270190     538.758077
                          1      13    4fy3              0.045000       0.000000
                                                         0.113512       0.000350
                                                         0.322032       0.026408
                                                         0.930550       1.022795
                                                         2.987378       1.277764
                                                         8.608625      -7.108652
                                                        49.270190     240.939937
                          1      13    4fy2z             0.045000       0.000000
                                                         0.113512       0.000782
                                                         0.322032       0.059050
                                                         0.930550       2.287038
                                                         2.987378       2.857166
                                                         8.608625     -15.895429
                                                        49.270190     538.758077
                          1      13    4fyz2             0.045000       0.000000
                                                         0.113512       0.000782
                                                         0.322032       0.059050
                                                         0.930550       2.287038
                                                         2.987378       2.857166
                                                         8.608625     -15.895429
                                                        49.270190     538.758077
                          1      13    4fz3              0.045000       0.000000
                                                         0.113512       0.000350
                                                         0.322032       0.026408
                                                         0.930550       1.022795
                                                         2.987378       1.277764
                                                         8.608625      -7.108652
                                                        49.270190     240.939937

                          1      14    5fx3              0.045000       0.000031
                                                         0.113512       0.000543
                                                         0.322032       0.086041
                                                         0.930550       0.419256
                                                         2.987378       0.000000
                                                         8.608625       0.000000
                                                        49.270190       0.000000
                          1      14    5fx2y             0.045000       0.000070
                                                         0.113512       0.001214
                                                         0.322032       0.192393
                                                         0.930550       0.937485
                                                         2.987378       0.000000
                                                         8.608625       0.000000
                                                        49.270190       0.000000
                          1      14    5fx2z             0.045000       0.000070
                                                         0.113512       0.001214
                                                         0.322032       0.192393
                                                         0.930550       0.937485
                                                         2.987378       0.000000
                                                         8.608625       0.000000
                                                        49.270190       0.000000
                          1      14    5fxy2             0.045000       0.000070
                                                         0.113512       0.001214
                                                         0.322032       0.192393
                                                         0.930550       0.937485
                                                         2.987378       0.000000
                                                         8.608625       0.000000
                                                        49.270190       0.000000
                          1      14    5fxyz             0.045000       0.000121
                                                         0.113512       0.002103
                                                         0.322032       0.333234
                                                         0.930550       1.623771
                                                         2.987378       0.000000
                                                         8.608625       0.000000
                                                        49.270190       0.000000
                          1      14    5fxz2             0.045000       0.000070
                                                         0.113512       0.001214
                                                         0.322032       0.192393
                                                         0.930550       0.937485
                                                         2.987378       0.000000
                                                         8.608625       0.000000
                                                        49.270190       0.000000
                          1      14    5fy3              0.045000       0.000031
                                                         0.113512       0.000543
                                                         0.322032       0.086041
                                                         0.930550       0.419256
                                                         2.987378       0.000000
                                                         8.608625       0.000000
                                                        49.270190       0.000000
                          1      14    5fy2z             0.045000       0.000070
                                                         0.113512       0.001214
                                                         0.322032       0.192393
                                                         0.930550       0.937485
                                                         2.987378       0.000000
                                                         8.608625       0.000000
                                                        49.270190       0.000000
                          1      14    5fyz2             0.045000       0.000070
                                                         0.113512       0.001214
                                                         0.322032       0.192393
                                                         0.930550       0.937485
                                                         2.987378       0.000000
                                                         8.608625       0.000000
                                                        49.270190       0.000000
                          1      14    5fz3              0.045000       0.000031
                                                         0.113512       0.000543
                                                         0.322032       0.086041
                                                         0.930550       0.419256
                                                         2.987378       0.000000
                                                         8.608625       0.000000
                                                        49.270190       0.000000

                          1      15    5gx4              0.045000       0.000051
                                                         0.113512       0.002105
                                                         0.322032       0.008605
                                                         0.930550       0.058205
                                                         2.987378       0.000000
                                                         8.608625       0.000000
                                                        49.270190       0.000000
                          1      15    5gx3y             0.045000       0.000134
                                                         0.113512       0.005569
                                                         0.322032       0.022768
                                                         0.930550       0.153995
                                                         2.987378       0.000000
                                                         8.608625       0.000000
                                                        49.270190       0.000000
                          1      15    5gx3z             0.045000       0.000134
                                                         0.113512       0.005569
                                                         0.322032       0.022768
                                                         0.930550       0.153995
                                                         2.987378       0.000000
                                                         8.608625       0.000000
                                                        49.270190       0.000000
                          1      15    5gx2y2            0.045000       0.000173
                                                         0.113512       0.007189
                                                         0.322032       0.029393
                                                         0.930550       0.198807
                                                         2.987378       0.000000
                                                         8.608625       0.000000
                                                        49.270190       0.000000
                          1      15    5gx2yz            0.045000       0.000300
                                                         0.113512       0.012452
                                                         0.322032       0.050910
                                                         0.930550       0.344344
                                                         2.987378       0.000000
                                                         8.608625       0.000000
                                                        49.270190       0.000000
                          1      15    5gx2z2            0.045000       0.000173
                                                         0.113512       0.007189
                                                         0.322032       0.029393
                                                         0.930550       0.198807
                                                         2.987378       0.000000
                                                         8.608625       0.000000
                                                        49.270190       0.000000
                          1      15    5gxy3             0.045000       0.000134
                                                         0.113512       0.005569
                                                         0.322032       0.022768
                                                         0.930550       0.153995
                                                         2.987378       0.000000
                                                         8.608625       0.000000
                                                        49.270190       0.000000
                          1      15    5gxy2z            0.045000       0.000300
                                                         0.113512       0.012452
                                                         0.322032       0.050910
                                                         0.930550       0.344344
                                                         2.987378       0.000000
                                                         8.608625       0.000000
                                                        49.270190       0.000000
                          1      15    5gxyz2            0.045000       0.000300
                                                         0.113512       0.012452
                                                         0.322032       0.050910
                                                         0.930550       0.344344
                                                         2.987378       0.000000
                                                         8.608625       0.000000
                                                        49.270190       0.000000
                          1      15    5gxz3             0.045000       0.000134
                                                         0.113512       0.005569
                                                         0.322032       0.022768
                                                         0.930550       0.153995
                                                         2.987378       0.000000
                                                         8.608625       0.000000
                                                        49.270190       0.000000
                          1      15    5gy4              0.045000       0.000051
                                                         0.113512       0.002105
                                                         0.322032       0.008605
                                                         0.930550       0.058205
                                                         2.987378       0.000000
                                                         8.608625       0.000000
                                                        49.270190       0.000000
                          1      15    5gy3z             0.045000       0.000134
                                                         0.113512       0.005569
                                                         0.322032       0.022768
                                                         0.930550       0.153995
                                                         2.987378       0.000000
                                                         8.608625       0.000000
                                                        49.270190       0.000000
                          1      15    5gy2z2            0.045000       0.000173
                                                         0.113512       0.007189
                                                         0.322032       0.029393
                                                         0.930550       0.198807
                                                         2.987378       0.000000
                                                         8.608625       0.000000
                                                        49.270190       0.000000
                          1      15    5gyz3             0.045000       0.000134
                                                         0.113512       0.005569
                                                         0.322032       0.022768
                                                         0.930550       0.153995
                                                         2.987378       0.000000
                                                         8.608625       0.000000
                                                        49.270190       0.000000
                          1      15    5gz4              0.045000       0.000051
                                                         0.113512       0.002105
                                                         0.322032       0.008605
                                                         0.930550       0.058205
                                                         2.987378       0.000000
                                                         8.608625       0.000000
                                                        49.270190       0.000000

                          2       1    1s            19730.758242       0.654856
                                                      2958.006020       1.769548
                                                       673.387518       2.322723
                                                       190.675174       4.547417
                                                        62.366448       3.527190
                                                        22.833858       5.352733

     RI Auxiliary Basis Set             RI_aug-TZVP-MOLOPT-ae_N_RI_112_s_p_d_f_g

       Number of orbital shell sets:                                          26
       Number of orbital shells:                                              26
       Number of primitive Cartesian functions:                               26
       Number of Cartesian basis functions:                                  152
       Number of spherical basis functions:                                  112
       Norm type:                                                              2

       Normalised Cartesian orbitals:

                        Set   Shell   Orbital            Exponent    Coefficient

                          1       1    1s                0.260514       0.259887

                          2       1   14dx2              0.292377       0.191341
                          2       1   14dxy              0.292377       0.331413
                          2       1   14dxz              0.292377       0.331413
                          2       1   14dy2              0.292377       0.191341
                          2       1   14dyz              0.292377       0.331413
                          2       1   14dz2              0.292377       0.191341

                          3       1    8px               0.339061       0.368797
                          3       1    8py               0.339061       0.368797
                          3       1    8pz               0.339061       0.368797

                          4       1   24gx4              0.490960       0.157330
                          4       1   24gx3y             0.490960       0.416256
                          4       1   24gx3z             0.490960       0.416256
                          4       1   24gx2y2            0.490960       0.537384
                          4       1   24gx2yz            0.490960       0.930777
                          4       1   24gx2z2            0.490960       0.537384
                          4       1   24gxy3             0.490960       0.416256
                          4       1   24gxy2z            0.490960       0.930777
                          4       1   24gxyz2            0.490960       0.930777
                          4       1   24gxz3             0.490960       0.416256
                          4       1   24gy4              0.490960       0.157330
                          4       1   24gy3z             0.490960       0.416256
                          4       1   24gy2z2            0.490960       0.537384
                          4       1   24gyz3             0.490960       0.416256
                          4       1   24gz4              0.490960       0.157330

                          5       1   15dx2              0.512054       0.510166
                          5       1   15dxy              0.512054       0.883634
                          5       1   15dxz              0.512054       0.883634
                          5       1   15dy2              0.512054       0.510166
                          5       1   15dyz              0.512054       0.883634
                          5       1   15dz2              0.512054       0.510166

                          6       1   20fx3              0.544013       0.374175
                          6       1   20fx2y             0.544013       0.836680
                          6       1   20fx2z             0.544013       0.836680
                          6       1   20fxy2             0.544013       0.836680
                          6       1   20fxyz             0.544013       1.449173
                          6       1   20fxz2             0.544013       0.836680
                          6       1   20fy3              0.544013       0.374175
                          6       1   20fy2z             0.544013       0.836680
                          6       1   20fyz2             0.544013       0.836680
                          6       1   20fz3              0.544013       0.374175

                          7       1    9px               0.595640       0.745882
                          7       1    9py               0.595640       0.745882
                          7       1    9pz               0.595640       0.745882

                          8       1    2s                0.714912       0.554115

                          9       1   26hx5              0.718673       0.253554
                          9       1   26hx4y             0.718673       0.760662
                          9       1   26hx4z             0.718673       0.760662
                          9       1   26hx3y2            0.718673       1.161930
                          9       1   26hx3yz            0.718673       2.012521
                          9       1   26hx3z2            0.718673       1.161930
                          9       1   26hx2y3            0.718673       1.161930
                          9       1   26hx2y2z           0.718673       2.598154
                          9       1   26hx2yz2           0.718673       2.598154
                          9       1   26hx2z3            0.718673       1.161930
                          9       1   26hxy4             0.718673       0.760662
                          9       1   26hxy3z            0.718673       2.012521
                          9       1   26hxy2z2           0.718673       2.598154
                          9       1   26hxyz3            0.718673       2.012521
                          9       1   26hxz4             0.718673       0.760662
                          9       1   26hy5              0.718673       0.253554
                          9       1   26hy4z             0.718673       0.760662
                          9       1   26hy3z2            0.718673       1.161930
                          9       1   26hy2z3            0.718673       1.161930
                          9       1   26hyz4             0.718673       0.760662
                          9       1   26hz5              0.718673       0.253554

                         10       1   16dx2              0.937774       1.470893
                         10       1   16dxy              0.937774       2.547662
                         10       1   16dxz              0.937774       2.547662
                         10       1   16dy2              0.937774       1.470893
                         10       1   16dyz              0.937774       2.547662
                         10       1   16dz2              0.937774       1.470893

                         11       1   21fx3              1.254079       2.450110
                         11       1   21fx2y             1.254079       5.478613
                         11       1   21fx2z             1.254079       5.478613
                         11       1   21fxy2             1.254079       5.478613
                         11       1   21fxyz             1.254079       9.489235
                         11       1   21fxz2             1.254079       5.478613
                         11       1   21fy3              1.254079       2.450110
                         11       1   21fy2z             1.254079       5.478613
                         11       1   21fyz2             1.254079       5.478613
                         11       1   21fz3              1.254079       2.450110

                         12       1   10px               1.342283       2.059422
                         12       1   10py               1.342283       2.059422
                         12       1   10pz               1.342283       2.059422

                         13       1    3s                1.396123       0.915383

                         14       1   17dx2              1.720262       4.253046
                         14       1   17dxy              1.720262       7.366491
                         14       1   17dxz              1.720262       7.366491
                         14       1   17dy2              1.720262       4.253046
                         14       1   17dyz              1.720262       7.366491
                         14       1   17dz2              1.720262       4.253046

                         15       1   25gx4              1.908829       6.584835
                         15       1   25gx3y             1.908829      17.421835
                         15       1   25gx3z             1.908829      17.421835
                         15       1   25gx2y2            1.908829      22.491492
                         15       1   25gx2yz            1.908829      38.956407
                         15       1   25gx2z2            1.908829      22.491492
                         15       1   25gxy3             1.908829      17.421835
                         15       1   25gxy2z            1.908829      38.956407
                         15       1   25gxyz2            1.908829      38.956407
                         15       1   25gxz3             1.908829      17.421835
                         15       1   25gy4              1.908829       6.584835
                         15       1   25gy3z             1.908829      17.421835
                         15       1   25gy2z2            1.908829      22.491492
                         15       1   25gyz3             1.908829      17.421835
                         15       1   25gz4              1.908829       6.584835

                         16       1   22fx3              3.013227      17.610677
                         16       1   22fx2y             3.013227      39.378671
                         16       1   22fx2z             3.013227      39.378671
                         16       1   22fxy2             3.013227      39.378671
                         16       1   22fxyz             3.013227      68.205858
                         16       1   22fxz2             3.013227      39.378671
                         16       1   22fy3              3.013227      17.610677
                         16       1   22fy2z             3.013227      39.378671
                         16       1   22fyz2             3.013227      39.378671
                         16       1   22fz3              3.013227      17.610677

                         17       1   18dx2              3.205702      12.640813
                         17       1   18dxy              3.205702      21.894531
                         17       1   18dxz              3.205702      21.894531
                         17       1   18dy2              3.205702      12.640813
                         17       1   18dyz              3.205702      21.894531
                         17       1   18dz2              3.205702      12.640813

                         18       1    4s                3.967216       2.003431

                         19       1   11px               4.782880      10.082121
                         19       1   11py               4.782880      10.082121
                         19       1   11pz               4.782880      10.082121

                         20       1   19dx2              6.134517      39.357284
                         20       1   19dxy              6.134517      68.168816
                         20       1   19dxz              6.134517      68.168816
                         20       1   19dy2              6.134517      39.357284
                         20       1   19dyz              6.134517      68.168816
                         20       1   19dz2              6.134517      39.357284

                         21       1   23fx3              6.825940     110.871528
                         21       1   23fx2y             6.825940     247.916274
                         21       1   23fx2z             6.825940     247.916274
                         21       1   23fxy2             6.825940     247.916274
                         21       1   23fxyz             6.825940     429.403583
                         21       1   23fxz2             6.825940     247.916274
                         21       1   23fy3              6.825940     110.871528
                         21       1   23fy2z             6.825940     247.916274
                         21       1   23fyz2             6.825940     247.916274
                         21       1   23fz3              6.825940     110.871528

                         22       1   12px              11.792277      31.148503
                         22       1   12py              11.792277      31.148503
                         22       1   12pz              11.792277      31.148503

                         23       1    5s               12.869791       4.842713

                         24       1   13px              26.937063      87.473779
                         24       1   13py              26.937063      87.473779
                         24       1   13pz              26.937063      87.473779

                         25       1    6s               38.640700      11.045715

                         26       1    7s              105.447650      23.452426

       Atomic covalent radius [Angstrom]:                                  0.750

       Atomic van der Waals radius [Angstrom]:                             1.550

     The atoms of this atomic kind are PAW atoms (GAPW):
       Hard Gaussian function radius:                                      1.512
       Rho0 radius:                                                        1.512
       Maximum GTO radius used for PAW projector construction:            24.566

     GAPW Soft Basis Set                                 aug-TZVP-MOLOPT-ae_soft

       Number of orbital shell sets:                                           2
       Number of orbital shells:                                              16
       Number of primitive Cartesian functions:                                5
       Number of Cartesian basis functions:                                   71
       Number of spherical basis functions:                                   56
       Norm type:                                                              2

       Normalised Cartesian orbitals:

                        Set   Shell   Orbital            Exponent    Coefficient

                          1       1    1s                0.045000       0.000000
                                                         0.113512       0.014500
                                                         0.322032       0.036074
                                                         0.930550      -0.061635
                                                         2.987378       0.535699

                          1       2    2s                0.045000       0.000000
                                                         0.113512       0.032692
                                                         0.322032       0.082974
                                                         0.930550       0.396674
                                                         2.987378       0.054918

                          1       3    3s                0.045000       0.000000
                                                         0.113512       0.047996
                                                         0.322032       0.306069
                                                         0.930550      -0.408076
                                                         2.987378      -0.229943

                          1       4    4s                0.045000       0.000000
                                                         0.113512       0.171213
                                                         0.322032      -0.186943
                                                         0.930550      -0.188982
                                                         2.987378       0.637930

                          1       5    5s                0.045000       0.096440
                                                         0.113512      -0.064027
                                                         0.322032      -0.041902
                                                         0.930550       0.111692
                                                         2.987378       0.000000

                          1       6    2px               0.045000       0.000000
                                                         0.113512       0.006367
                                                         0.322032       0.040684
                                                         0.930550       0.811118
                                                         2.987378       1.750760
                          1       6    2py               0.045000       0.000000
                                                         0.113512       0.006367
                                                         0.322032       0.040684
                                                         0.930550       0.811118
                                                         2.987378       1.750760
                          1       6    2pz               0.045000       0.000000
                                                         0.113512       0.006367
                                                         0.322032       0.040684
                                                         0.930550       0.811118
                                                         2.987378       1.750760

                          1       7    3px               0.045000       0.000000
                                                         0.113512       0.011134
                                                         0.322032       0.344073
                                                         0.930550      -0.153789
                                                         2.987378      -0.764833
                          1       7    3py               0.045000       0.000000
                                                         0.113512       0.011134
                                                         0.322032       0.344073
                                                         0.930550      -0.153789
                                                         2.987378      -0.764833
                          1       7    3pz               0.045000       0.000000
                                                         0.113512       0.011134
                                                         0.322032       0.344073
                                                         0.930550      -0.153789
                                                         2.987378      -0.764833

                          1       8    4px               0.045000       0.000000
                                                         0.113512       0.104427
                                                         0.322032      -0.047567
                                                         0.930550      -0.121777
                                                         2.987378      -0.049280
                          1       8    4py               0.045000       0.000000
                                                         0.113512       0.104427
                                                         0.322032      -0.047567
                                                         0.930550      -0.121777
                                                         2.987378      -0.049280
                          1       8    4pz               0.045000       0.000000
                                                         0.113512       0.104427
                                                         0.322032      -0.047567
                                                         0.930550      -0.121777
                                                         2.987378      -0.049280

                          1       9    5px               0.045000       0.002493
                                                         0.113512      -0.112828
                                                         0.322032       0.052724
                                                         0.930550       0.295283
                                                         2.987378       0.000000
                          1       9    5py               0.045000       0.002493
                                                         0.113512      -0.112828
                                                         0.322032       0.052724
                                                         0.930550       0.295283
                                                         2.987378       0.000000
                          1       9    5pz               0.045000       0.002493
                                                         0.113512      -0.112828
                                                         0.322032       0.052724
                                                         0.930550       0.295283
                                                         2.987378       0.000000

                          1      10    3dx2              0.045000       0.000000
                                                         0.113512       0.008426
                                                         0.322032       0.004138
                                                         0.930550       0.975526
                                                         2.987378       4.861216
                          1      10    3dxy              0.045000       0.000000
                                                         0.113512       0.014594
                                                         0.322032       0.007167
                                                         0.930550       1.689661
                                                         2.987378       8.419873
                          1      10    3dxz              0.045000       0.000000
                                                         0.113512       0.014594
                                                         0.322032       0.007167
                                                         0.930550       1.689661
                                                         2.987378       8.419873
                          1      10    3dy2              0.045000       0.000000
                                                         0.113512       0.008426
                                                         0.322032       0.004138
                                                         0.930550       0.975526
                                                         2.987378       4.861216
                          1      10    3dyz              0.045000       0.000000
                                                         0.113512       0.014594
                                                         0.322032       0.007167
                                                         0.930550       1.689661
                                                         2.987378       8.419873
                          1      10    3dz2              0.045000       0.000000
                                                         0.113512       0.008426
                                                         0.322032       0.004138
                                                         0.930550       0.975526
                                                         2.987378       4.861216

                          1      11    4dx2              0.045000       0.000000
                                                         0.113512      -0.007657
                                                         0.322032       0.207542
[...]
 count for grid        1:        1792614          cutoff [a.u.]          250.00
 count for grid        2:         390357          cutoff [a.u.]           83.33
 count for grid        3:         272078          cutoff [a.u.]           27.78
 count for grid        4:         178282          cutoff [a.u.]            9.26
 total gridlevel count  :        2633331

 -------------------------------------------------------------------------------
 -                                                                             -
 -                         MESSAGE PASSING PERFORMANCE                         -
 -                                                                             -
 -------------------------------------------------------------------------------

 ROUTINE             CALLS      AVE VOLUME [Bytes]
 MP_Group              252
 MP_Bcast              783                 605859.
 MP_Allreduce         6087                  14887.
 MP_Sync               695
 MP_Alltoall          1528              108917289.
 MP_SendRecv          2579                 529599.
 MP_ISendRecv         5106                 287139.
 MP_Wait             15489
 MP_comm_split         108
 MP_ISend            10134                2048666.
 MP_IRecv            10141                2047253.
 -------------------------------------------------------------------------------


 -------------------------------------------------------------------------------
 -                                                                             -
 -                           R E F E R E N C E S                               -
 -                                                                             -
 -------------------------------------------------------------------------------
 
 CP2K version 2025.1 (Development Version), the CP2K developers group (2025).
 CP2K is freely available from https://www.cp2k.org/ .
 
 T. D. Kuehne, M. Iannuzzi, M. Del Ben, V. V. Rybkin, P. Seewald, F. Stein, T. 
 Laino, R. Z. Khaliullin, O. Schuett, F. Schiffmann, D. Golze, J. Wilhelm, S. 
 Chulkov, M. H. Bani-Hashemian, V. Weber, U. Borstnik, M. Taillefumier, A. S. 
 Jakobovits, A. Lazzaro, H. Pabst, T. Mueller, R. Schade, M. Guidon, S. 
 Andermatt, N. Holmberg, G. K. Schenter, A. Hehn, A. Bussy, F. Belleflamme, G. 
 Tabacchi, A. Gloess, M. Lass, I. Bethune, C. J. Mundy, C. Plessl, M. Watkins, 
 J. VandeVondele, M. Krack, J. Hutter.
 J. Chem. Phys. 152, 194103 (2020).
 CP2K: An electronic structure and molecular dynamics software package - 
 Quickstep: Efficient and accurate electronic structure calculations.
 https://doi.org/10.1063/5.0007045

 J. Wilhelm, D. Golze, L. Talirz, J. Hutter, C. A. Pignedoli.
 J. Phys. Chem. Lett. 9, 306-312 (2018).
 Toward GW calculations on thousands of atoms.
 https://doi.org/10.1021/acs.jpclett.7b02740

 J. Wilhelm, J. Hutter.
 Phys. Rev. B 95, 235123 (2017).
 Periodic GW calculations in the Gaussian and plane-waves scheme.
 https://doi.org/10.1103/PhysRevB.95.235123

 O. Schuett, P. Messmer, J. Hutter, J. VandeVondele.
 Electronic Structure Calculations on Graphics Processing Units, 173-190 (2016).
 GPU-Accelerated Sparse Matrix-Matrix Multiplication for Linear Scaling Density 
 Functional Theory.
 https://doi.org/10.1002/9781118670712.ch8

 J. Wilhelm, M. Del Ben, J. Hutter.
 J. Chem. Theory Comput. 12, 3623-3635 (2016).
 GW in the Gaussian and plane waves scheme with application to linear acenes.
 https://doi.org/10.1021/acs.jctc.6b00380

 M. Del Ben, O. Schuett, T. Wentz, P. Messmer, J. Hutter, J. VandeVondele.
 Comput. Phys. Commun. 187, 120-129 (2015).
 Enabling simulation at the fifth rung of DFT: Large scale RPA calculations with 
 excellent time to solution.
 https://doi.org/10.1016/j.cpc.2014.10.021

 J. Hutter, M. Iannuzzi, F. Schiffmann, J. VandeVondele.
 WIREs Comput Mol Sci. 4, 15-25 (2014).
 CP2K: atomistic simulations of condensed matter systems.
 https://doi.org/10.1002/wcms.1159

 U. Borstnik, J. VandeVondele, V. Weber, J. Hutter.
 Parallel Comput. 40, 47-58 (2014).
 Sparse matrix multiplication: The distributed block-compressed sparse row 
 library.
 https://doi.org/10.1016/j.parco.2014.03.012

 M. Del Ben, J. Hutter, J. VandeVondele.
 J. Chem. Theory Comput. 9, 2654-2671 (2013).
 Electron Correlation in the Condensed Phase from a Resolution of Identity 
 Approach Based on the Gaussian and Plane Waves Scheme.
 https://doi.org/10.1021/ct4002202

 M. Del Ben, J. Hutter, J. VandeVondele.
 J. Chem. Theory Comput. 8, 4177-4188 (2012).
 Second-Order Moller-Plesset Perturbation Theory in the Condensed Phase: An 
 Efficient and Massively Parallel Gaussian and Plane Waves Approach.
 https://doi.org/10.1021/ct300531w

 M. Guidon, J. Hutter, J. VandeVondele.
 J. Chem. Theory Comput. 5, 3010-3021 (2009).
 Robust Periodic Hartree-Fock Exchange for Large-Scale Simulations Using 
 Gaussian Basis Sets.
 https://doi.org/10.1021/ct900494g

 M. Guidon, F. Schiffmann, J. Hutter, J. VandeVondele.
 J. Chem. Phys. 128, 214104 (2008).
 Ab initio molecular dynamics using hybrid density functionals.
 https://doi.org/10.1063/1.2931945

 L. Genovese, T. Deutsch, S. Goedecker.
 J. Chem. Phys. 127, 054704 (2007).
 Efficient and accurate three-dimensional Poisson solver for surface problems.
 https://doi.org/10.1063/1.2754685

 J. VandeVondele, J. Hutter.
 J. Chem. Phys. 127, 114105 (2007).
 Gaussian basis sets for accurate calculations on molecular systems in gas and 
 condensed phases.
 https://doi.org/10.1063/1.2770708

 L. Genovese, T. Deutsch, A. Neelov, S. Goedecker, G. Beylkin.
 J. Chem. Phys. 125, 074105 (2006).
 Efficient solution of Poisson's equation with free boundary conditions.
 https://doi.org/10.1063/1.2335442

 M. Frigo, S. G. Johnson.
 Proc. IEEE 93, 216-231 (2005).
 The design and implementation of FFTW3.
 https://doi.org/10.1109/JPROC.2004.840301

 M. Krack, M. Parrinello.
 Phys. Chem. Chem. Phys. 2, 2105-2112 (2000).
 All-electron ab-initio molecular dynamics.
 https://doi.org/10.1039/b001167n

 G. Lippert, J. Hutter, M. Parrinello.
 Theor. Chem. Acc. 103, 124-140 (1999).
 The Gaussian and augmented-plane-wave density functional method for ab initio 
 molecular dynamics simulations.
 https://doi.org/10.1007/s002140050523

 J. P. Perdew, K. Burke, M. Ernzerhof.
 Phys. Rev. Lett. 77, 3865-3868 (1996).
 Generalized gradient approximation made simple.
 https://doi.org/10.1103/PhysRevLett.77.3865


 -------------------------------------------------------------------------------
 -                                                                             -
 -                                T I M I N G                                  -
 -                                                                             -
 -------------------------------------------------------------------------------
 SUBROUTINE                       CALLS  ASD         SELF TIME        TOTAL TIME
                                MAXIMUM       AVERAGE  MAXIMUM  AVERAGE  MAXIMUM
 CP2K                                 1  1.0    0.043    0.066  852.951  852.951
 qs_energies                          1  2.0    0.001    0.001  851.614  851.840
 scf_env_do_scf                       1  3.0    0.000    0.000  845.310  845.310
 scf_env_do_scf_inner_loop           54  4.0    0.002    0.003  845.309  845.310
 qs_ks_build_kohn_sham_matrix        55  7.0    0.009    0.010  774.939  774.977
 qs_ks_update_qs_env                 54  5.0    0.000    0.000  772.210  772.246
 rebuild_ks_matrix                   54  6.0    0.000    0.000  772.206  772.243
 hfx_ks_matrix                       55  8.0    0.002    0.003  537.539  537.587
 integrate_four_center               55  9.0    3.297    4.643  537.536  537.583
 mp_sync                            695  9.3  463.385  485.098  463.385  485.098
 integrate_four_center_main          55 10.0   19.277  447.131   20.860  485.057
 fft_wrap_pw1pw2                   1146  9.9    0.028    0.035  130.967  131.938
 fft_wrap_pw1pw2_250                816 11.1    5.814    6.455  126.853  128.090
 fft3d_ps                          1146 11.9   56.342   58.875  102.849  103.894
 pw_poisson_solve                    55  8.0    2.401    2.471   88.799   88.848
 qs_vxc_create                       55  8.0    0.001    0.001   78.456   78.457
 xc_vxc_pw_create                    54  9.0    1.469    1.531   78.456   78.456
 ps_wavelet_solve                    55  9.0   49.762   53.405   58.691   58.866
 xc_pw_derive                       324 11.0    0.004    0.005   56.887   57.594
 calc_screening_functions             1 10.0   46.397   49.407   46.598   49.608
 mp_alltoall_d54                     55 10.0    5.581   46.202    5.581   46.202
 xc_rho_set_and_dset_create          54 10.0    1.125    1.390   38.577   39.406
 gspace_mixing                       53  5.0    1.065    1.083   39.140   39.140
 xc_pw_divergence                    54 10.0    0.002    0.003   37.706   38.464
 integrate_four_center_bin         4224 11.0    1.583   37.926    1.583   37.926
 mp_alltoall_z22v                  1146 13.9   28.682   36.400   28.682   36.400
 qs_rho_update_rho_low               55  5.0    0.001    0.001   34.201   34.202
 calculate_rho_elec                  55  6.0    1.141    1.159   34.063   34.063
 broyden_mixing                      53  6.0   29.213   29.596   29.886   30.109
 prepare_gapw_den                    55  8.0    0.001    0.001   26.989   27.151
 x_to_yz                            599 13.1   12.155   12.483   26.230   26.728
 density_rs2pw                       55  7.0    0.004    0.005   25.129   25.409
 yz_to_x                            547 12.8    5.654    6.838   20.261   25.030
 sum_up_and_integrate                55  8.0    0.001    0.001   18.248   18.301
 integrate_v_rspace                  55  9.0    0.001    0.002   17.937   18.042
 potential_pw2rs                     55 10.0    0.049    0.054   17.413   17.518
 put_rho0_on_grid                    55  9.0    1.091    1.107   14.041   14.203
 mp_sum_d                          1671  6.0   11.296   13.423   11.296   13.423
 calculate_rho_atom                 110  9.0    1.026   12.736    1.026   12.736
 mp_sum_dv                         2482 10.8   11.897   12.508   11.897   12.508
 transfer_pw2rs                     276 10.6    0.005    0.006   10.397   10.476
 pw_scatter_p                       599 12.1    9.497    9.659    9.497    9.659
 transfer_rs2pw                     276  8.4    0.008    0.010    8.955    9.169
 calculate_vxc_atom                  55  8.0    0.029    0.342    9.132    9.133
 gaVxcgb_GC                         108  9.0    0.363    8.707    0.363    8.707
 pw_gather_p                        547 11.8    7.901    8.527    7.901    8.527
 xc_functional_eval                 270 10.9    0.001    0.002    7.553    8.259
 pbe_lda_eval                       270 11.9    7.552    8.258    7.552    8.258
 transfer_pw2rs_250                 111 10.9    2.916    3.091    7.714    7.876
 grid_collocate_task_list            55  7.0    7.472    7.827    7.472    7.827
 mp_waitany                        9296 11.5    7.375    7.824    7.375    7.824
 transfer_rs2pw_250                 111 10.0    3.026    3.229    6.743    6.939
 pw_derive                          489 11.3    6.513    6.845    6.513    6.845
 mp2_main                             1  3.0    0.000    0.000    4.977    5.204
 integrate_vhg0_rspace               55  8.0    0.101    0.143    5.030    5.041
 mp_sum_l                           907  6.0    3.016    4.266    3.016    4.266
 integrate_four_center_load          55 10.0    0.000    0.001    2.992    4.247
 hfx_load_balance                     1 11.0    0.000    0.000    2.991    4.246
 hfx_load_balance_range               1 12.0    0.000    0.000    2.989    4.244
 fft_wrap_pw1pw2_90                 110 10.5    0.167    0.225    3.391    3.962
 mp_alltoall_d45                     56 10.0    2.791    3.751    2.791    3.751
 pw_copy                            820 10.6    3.478    3.685    3.478    3.685
 cp2k_distribution_to_z_slices       55  9.0    2.059    2.174    3.169    3.475
 pw_copy_to_array                   547 11.8    2.978    3.333    2.978    3.333
 pw_poisson_set                      56  8.9    0.002    0.003    3.258    3.307
 mp_alltoall_d11v                  1096  9.5    2.421    3.131    2.421    3.131
 compute_vec_Sigma_x_minus_vxc_       1  4.0    0.000    0.000    2.738    2.738
 rs_grid_zero                       277 11.1    2.570    2.634    2.570    2.634
 pw_axpy                            545  9.3    2.359    2.566    2.359    2.566
 mp2_gpw_main                         1  4.0    0.000    0.000    2.055    2.066
 pw_integral_ab_c1d_c1d_gs           55  9.0    1.634    1.825    1.945    2.055
 pw_copy_from_array                 599 12.1    1.701    2.004    1.701    2.004
 pw_poisson_rebuild                  55  9.0    0.000    0.000    1.808    1.835
 ps_wavelet_create                    1 10.0    0.000    0.000    1.808    1.835
 RS_z_slice_distribution              1 11.0    1.659    1.711    1.808    1.835
 rpa_ri_compute_en                    1  5.0    0.000    0.000    1.540    1.540
 rpa_num_int                          1  6.0    0.001    0.001    1.531    1.531
 transfer_pw2rs_90                   55 12.0    0.455    0.507    1.379    1.523
 Vh_1c_gg_integrals                  55  8.0    0.044    0.919    0.999    1.468
 compute_GW_self_energy             100  7.0    0.001    0.001    1.301    1.348
 compute_GW_self_energy_deep        100  8.0    1.010    1.057    1.253    1.300
 pw_zero                            326 10.3    1.122    1.180    1.122    1.180
 transfer_rs2pw_90                   55  9.0    0.369    0.391    1.070    1.167
 mp_waitall_1                     10582 12.1    0.683    1.161    0.683    1.161
 mp_sum_dm                          389  7.6    0.834    1.126    0.834    1.126
 transfer_pw2rs_30                   55 12.0    0.612    0.650    1.006    1.102
 init_scf_run                         1  3.0    0.000    0.000    1.054    1.055
 scf_env_initial_rho_setup            1  4.0    0.000    0.000    1.045    1.046
 transfer_rs2pw_30                   55  9.0    0.475    0.491    0.903    0.923
 qs_init_subsys                       1  2.0    0.005    0.005    0.893    0.893
 qs_env_setup                         1  3.0    0.000    0.000    0.867    0.871
 qs_env_rebuild_pw_env                2  3.5    0.000    0.000    0.866    0.869
 pw_env_rebuild                       1  5.0    0.001    0.001    0.866    0.869
 mp_isend_dv                       9639 11.7    0.617    0.868    0.617    0.868
 pw_grid_setup                        4  6.0    0.000    0.000    0.846    0.850
 pw_grid_setup_internal               4  7.0    0.019    0.020    0.846    0.850
 scale_and_distribute               110 10.0    0.707    0.767    0.707    0.767
 pw_grid_sort                         4  8.0    0.472    0.478    0.669    0.679
 mp_irecv_dm3                      1328 11.5    0.319    0.653    0.319    0.653
 mp_sendrecv_dv                    2530 10.0    0.569    0.586    0.569    0.586
 fft_wrap_pw1pw2_30                 110 10.5    0.026    0.030    0.564    0.585
 mp_max_i                           568  2.7    0.297    0.575    0.297    0.575
 mp_isend_dm3                      1328 11.5    0.345    0.573    0.345    0.573
 rs_gather_matrices                  55 10.0    0.001    0.008    0.418    0.524
 grid_integrate_task_list            55 10.0    0.105    0.516    0.105    0.516
 mp2_ri_gpw_compute_in                1  5.0    0.000    0.000    0.498    0.498
 mp2_ri_gpw_compute_in_loop           1  6.0    0.000    0.000    0.494    0.494
 qs_scf_new_mos                      54  5.0    0.001    0.001    0.481    0.485
 contract_B_L                         4  7.0    0.001    0.001    0.324    0.441
 calc_pair_dist_radii                 1 10.0    0.250    0.265    0.387    0.409
 mp2_eri_3c_integrate                 1  7.0    0.000    0.000    0.140    0.396
 integrate_set_3c                    28  8.0    0.130    0.373    0.140    0.396
 mp_cart_create                     343 10.5    0.274    0.391    0.274    0.392
 mp_sum_i                            17  9.9    0.227    0.389    0.227    0.389
 restraint_control                    1  2.0    0.000    0.000    0.227    0.389
 mp2_main_alloc_hfx                   1  4.0    0.162    0.389    0.162    0.389
 pw_scale                           217  9.5    0.337    0.381    0.337    0.381
 dbt_pgrid_create_expert             80 10.7    0.000    0.000    0.262    0.380
 powell_optimize                 130485 11.0    0.338    0.348    0.338    0.348
 transfer_pw2rs_10                   55 12.0    0.133    0.141    0.293    0.311
 integrate_four_center_getP          55 10.0    0.003    0.004    0.238    0.308
 cp_fm_syevd                         60  7.0    0.000    0.001    0.305    0.306
 parallel_gemm_fm                   327  8.7    0.000    0.000    0.294    0.303
 parallel_gemm_fm_gemm              327  9.7    0.000    0.001    0.293    0.302
 cp_fm_gemm                         327 10.7    0.293    0.302    0.293    0.302
 mixing_init                          1  5.0    0.289    0.295    0.294    0.295
 mp_isendrecv_dv                   5060 12.0    0.148    0.282    0.148    0.282
 eigensolver_symm                    55  6.0    0.002    0.002    0.280    0.280
 cp_fm_redistribute_end              60  8.0    0.146    0.272    0.147    0.273
 cp_fm_syevd_base                    60  8.0    0.126    0.252    0.126    0.252
 transfer_rs2pw_10                   55  9.0    0.090    0.094    0.230    0.239
 calculate_rho0_atom                110  9.0    0.170    0.206    0.170    0.206
 sort_shells                          4  9.0    0.197    0.201    0.197    0.201
 xc_pw_smooth                        54 10.0    0.000    0.000    0.148    0.189
 scf_post_calculation_gpw             1  3.0    0.000    0.000    0.166    0.166
 write_available_results              1  4.0    0.000    0.000    0.166    0.166
 write_mo_free_results                1  5.0    0.026    0.028    0.166    0.166
 fft_wrap_pw1pw2_10                 110 10.5    0.006    0.008    0.131    0.141
 calculate_rho_atom_coeff            55  6.0    0.027    0.065    0.138    0.138
 calculate_dm_sparse                 54  6.0    0.000    0.000    0.128    0.132
 cp_dbcsr_plus_fm_fm_t               54  7.0    0.001    0.001    0.127    0.131
 dbcsr_multiply_generic             107  8.1    0.005    0.005    0.122    0.125
 mp_irecv_dv                       9631 11.7    0.061    0.114    0.061    0.114
 pw_grid_assign                       4  8.0    0.105    0.108    0.107    0.110
 qs_energies_init_hamiltonians        1  3.0    0.000    0.000    0.106    0.106
 create_qs_kind_set                   1  2.0    0.000    0.000    0.104    0.105
 read_qs_kind                         2  3.0    0.043    0.047    0.104    0.105
 build_core_hamiltonian_matrix        1  4.0    0.000    0.000    0.102    0.102
 rpa_num_int_RPA_matrix_operati     100  7.0    0.001    0.002    0.101    0.101
 overlap_condnum                      1  5.0    0.000    0.000    0.098    0.099
 copy_dbcsr_to_fm                    89  6.7    0.002    0.002    0.090    0.096
 update_ks_atom                      55  8.0    0.014    0.050    0.064    0.092
 -------------------------------------------------------------------------------

 The number of warnings for this run is : 1
 
 -------------------------------------------------------------------------------
  **** **** ******  **  PROGRAM ENDED AT                 2025-03-08 02:35:07.579
 ***** ** ***  *** **   PROGRAM RAN ON                              i02r08c05s12
 **    ****   ******    PROGRAM RAN BY                                   di38fab
 ***** **    ** ** **   PROGRAM PROCESS ID                               2431402
  **** **  *******  **  PROGRAM STOPPED IN /hppfs/scratch/04/di38fab/05_MOL/W4-1
                                           1+ALK/nh/TZVP
