 DBCSR| CPU Multiplication driver                                           BLAS (U)
 DBCSR| Multrec recursion limit                                              512 (U)
 DBCSR| Multiplication stack size                                           1000 (D)
 DBCSR| Maximum elements for images                                    UNLIMITED (U)
 DBCSR| Multiplicative factor virtual images                                   1 (U)
 DBCSR| Use multiplication densification                                       T (D)
 DBCSR| Multiplication size stacks                                             3 (U)
 DBCSR| Use memory pool for CPU allocation                                     F (U)
 DBCSR| Number of 3D layers                                               SINGLE (U)
 DBCSR| Use MPI memory allocation                                              F (U)
 DBCSR| Use RMA algorithm                                                      F (U)
 DBCSR| Use Communication thread                                               T (U)
 DBCSR| Communication thread load                                             75 (D)
 DBCSR| MPI: My process id                                                     0
 DBCSR| MPI: Number of processes                                              24
 DBCSR| OMP: Current number of threads                                         4
 DBCSR| OMP: Max number of threads                                             4
 DBCSR| Split modifier for TAS multiplication algorithm                  1.0E+00 (U)


  **** **** ******  **  PROGRAM STARTED AT               2025-03-13 06:13:34.232
 ***** ** ***  *** **   PROGRAM STARTED ON                          i01r05c04s09
 **    ****   ******    PROGRAM STARTED BY                               di38fab
 ***** **    ** ** **   PROGRAM PROCESS ID                                 14435
  **** **  *******  **  PROGRAM STARTED IN /hppfs/scratch/04/di38fab/05_MOL/W4-1
                                           1+ALK/c2/DZVP/GW+BSE/1e-3

 CP2K| version string:                 CP2K version 2025.1 (Development Version)
 CP2K| source code revision number:                                  git:d2e611a
 CP2K| cp2kflags: omp libint fftw3 libxc parallel scalapack max_contr=4         
 CP2K| is freely available from                            https://www.cp2k.org/
 CP2K| Program compiled at                       Thu 06 Mar 2025 05:09:20 PM CET
 CP2K| Program compiled on                                               login02
 CP2K| Program compiled for                                        Supermuc-foss
 CP2K| Data directory path                  /hppfs/work/pn36zo/di38fab/cp2k/data
 CP2K| Input file name                                                    GW.inp

 GLOBAL| Force Environment number                                              1
 GLOBAL| Basis set file name            /hppfs/scratch/04/di38fab/04_TMD/BASIS_A
 GLOBAL| Potential file name            /hppfs/work/pn36zo/di38fab/cp2k/data/ALL
 GLOBAL| MM Potential file name                                     MM_POTENTIAL
 GLOBAL| Coordinate file name                                      __STD_INPUT__
 GLOBAL| Method name                                                        CP2K
 GLOBAL| Project name                                                       MoS2
 GLOBAL| Run type                                                         ENERGY
 GLOBAL| FFT library                                                       FFTW3
 GLOBAL| Diagonalization library                                       ScaLAPACK
 GLOBAL| DGEMM library                                                      BLAS
 GLOBAL| Orthonormality check for eigenvectors                          DISABLED
 GLOBAL| Matrix multiplication library                                 ScaLAPACK
 GLOBAL| All-to-all communication in single precision                          F
 GLOBAL| FFTs using library dependent lengths                                  F
 GLOBAL| Grid backend                                                       AUTO
 GLOBAL| Global print level                                               MEDIUM
 GLOBAL| MPI I/O enabled                                                       T
 GLOBAL| Total number of message passing processes                            24
 GLOBAL| Number of threads for this process                                    4
 GLOBAL| This output is from process                                           0
 GLOBAL| OpenMP stack size per thread (OMP_STACKSIZE)                    default
 GLOBAL| CPU model name             Intel(R) Xeon(R) Platinum 8174 CPU @ 3.10GHz

 MEMORY| system memory details [Kb]
 MEMORY|                        rank 0           min           max       average
 MEMORY| MemTotal             98436664      98436664      98436664      98436664
 MEMORY| MemFree              83816128      83816128      84065448      83940788
 MEMORY| Buffers                     0             0             0             0
 MEMORY| Cached                2407412       2407412       2603092       2505252
 MEMORY| Slab                  1268484       1163516       1268484       1216000
 MEMORY| SReclaimable           279840        258148        279840        268994
 MEMORY| MemLikelyFree        86503380      86503380      86926688      86715034


 *** Fundamental physical constants (SI units) ***

 *** Literature: B. J. Mohr and B. N. Taylor,
 ***             CODATA recommended values of the fundamental physical
 ***             constants: 2006, Web Version 5.1
 ***             http://physics.nist.gov/constants

 Speed of light in vacuum [m/s]                             2.99792458000000E+08
 Magnetic constant or permeability of vacuum [N/A**2]       1.25663706143592E-06
 Electric constant or permittivity of vacuum [F/m]          8.85418781762039E-12
 Planck constant (h) [J*s]                                  6.62606896000000E-34
 Planck constant (h-bar) [J*s]                              1.05457162825177E-34
 Elementary charge [C]                                      1.60217648700000E-19
 Electron mass [kg]                                         9.10938215000000E-31
 Electron g factor [ ]                                     -2.00231930436220E+00
 Proton mass [kg]                                           1.67262163700000E-27
 Fine-structure constant                                    7.29735253760000E-03
 Rydberg constant [1/m]                                     1.09737315685270E+07
 Avogadro constant [1/mol]                                  6.02214179000000E+23
 Boltzmann constant [J/K]                                   1.38065040000000E-23
 Atomic mass unit [kg]                                      1.66053878200000E-27
 Bohr radius [m]                                            5.29177208590000E-11

 *** Conversion factors ***

 [u] -> [a.u.]                                              1.82288848426455E+03
 [Angstrom] -> [Bohr] = [a.u.]                              1.88972613288564E+00
 [a.u.] = [Bohr] -> [Angstrom]                              5.29177208590000E-01
 [a.u.] -> [s]                                              2.41888432650478E-17
 [a.u.] -> [fs]                                             2.41888432650478E-02
 [a.u.] -> [J]                                              4.35974393937059E-18
 [a.u.] -> [N]                                              8.23872205491840E-08
 [a.u.] -> [K]                                              3.15774647902944E+05
 [a.u.] -> [kJ/mol]                                         2.62549961709828E+03
 [a.u.] -> [kcal/mol]                                       6.27509468713739E+02
 [a.u.] -> [Pa]                                             2.94210107994716E+13
 [a.u.] -> [bar]                                            2.94210107994716E+08
 [a.u.] -> [atm]                                            2.90362800883016E+08
 [a.u.] -> [eV]                                             2.72113838565563E+01
 [a.u.] -> [Hz]                                             6.57968392072181E+15
 [a.u.] -> [1/cm] (wave numbers)                            2.19474631370540E+05
 [a.u./Bohr**2] -> [1/cm]                                   5.14048714338585E+03
 

 CELL_TOP| Volume [angstrom^3]:                                     27000.000000
 CELL_TOP| Vector a [angstrom    30.000     0.000     0.000   |a| =    30.000000
 CELL_TOP| Vector b [angstrom     0.000    30.000     0.000   |b| =    30.000000
 CELL_TOP| Vector c [angstrom     0.000     0.000    30.000   |c| =    30.000000
 CELL_TOP| Angle (b,c), alpha [degree]:                                90.000000
 CELL_TOP| Angle (a,c), beta  [degree]:                                90.000000
 CELL_TOP| Angle (a,b), gamma [degree]:                                90.000000
 CELL_TOP| Numerically orthorhombic:                                         YES
 CELL_TOP| Periodicity                                                      NONE

 GENERATE|  Preliminary Number of Bonds generated:                             0
 GENERATE|  Achieved consistency in connectivity generation.

 CELL| Volume [angstrom^3]:                                         27000.000000
 CELL| Vector a [angstrom]:      30.000     0.000     0.000   |a| =    30.000000
 CELL| Vector b [angstrom]:       0.000    30.000     0.000   |b| =    30.000000
 CELL| Vector c [angstrom]:       0.000     0.000    30.000   |c| =    30.000000
 CELL| Angle (b,c), alpha [degree]:                                    90.000000
 CELL| Angle (a,c), beta  [degree]:                                    90.000000
 CELL| Angle (a,b), gamma [degree]:                                    90.000000
 CELL| Numerically orthorhombic:                                             YES
 CELL| Periodicity                                                          NONE

 CELL_REF| Volume [angstrom^3]:                                     27000.000000
 CELL_REF| Vector a [angstrom    30.000     0.000     0.000   |a| =    30.000000
 CELL_REF| Vector b [angstrom     0.000    30.000     0.000   |b| =    30.000000
 CELL_REF| Vector c [angstrom     0.000     0.000    30.000   |c| =    30.000000
 CELL_REF| Angle (b,c), alpha [degree]:                                90.000000
 CELL_REF| Angle (a,c), beta  [degree]:                                90.000000
 CELL_REF| Angle (a,b), gamma [degree]:                                90.000000
 CELL_REF| Numerically orthorhombic:                                         YES
 CELL_REF| Periodicity                                                      NONE

 *******************************************************************************
 *******************************************************************************
 **                                                                           **
 **     #####                         ##              ##                      **
 **    ##   ##            ##          ##              ##                      **
 **   ##     ##                       ##            ######                    **
 **   ##     ##  ##   ##  ##   #####  ##  ##   ####   ##    #####    #####    **
 **   ##     ##  ##   ##  ##  ##      ## ##   ##      ##   ##   ##  ##   ##   **
 **   ##  ## ##  ##   ##  ##  ##      ####     ###    ##   ######   ######    **
 **    ##  ###   ##   ##  ##  ##      ## ##      ##   ##   ##       ##        **
 **     #######   #####   ##   #####  ##  ##  ####    ##    #####   ##        **
 **           ##                                                    ##        **
 **                                                                           **
 **                                                ... make the atoms dance   **
 **                                                                           **
 **            Copyright (C) by CP2K developers group (2000-2025)             **
 **                      J. Chem. Phys. 152, 194103 (2020)                    **
 **                                                                           **
 *******************************************************************************

 DFT| Spin restricted Kohn-Sham (RKS) calculation                            RKS
 DFT| Multiplicity                                                             1
 DFT| Number of spin states                                                    1
 DFT| Charge                                                                   0
 DFT| Self-interaction correction (SIC)                                       NO
 DFT| Cutoffs: density                                              1.000000E-10
 DFT|          gradient                                             1.000000E-10
 DFT|          tau                                                  1.000000E-10
 DFT|          cutoff_smoothing_range                               0.000000E+00
 DFT| XC density smoothing                                                  NONE
 DFT| XC derivatives                                                          PW

 FUNCTIONAL| PBE:
 FUNCTIONAL| J.P.Perdew, K.Burke, M.Ernzerhof, Phys. Rev. Letter, vol. 77, n 18,
 FUNCTIONAL|  pp. 3865-3868, (1996)sx=0.750sc=1.000{spin unpolarized}           


 QS| Method:                                                                GAPW
 QS| Density plane wave grid type                        NON-SPHERICAL FULLSPACE
 QS| Number of grid levels:                                                    4
 QS| Density cutoff [a.u.]:                                                250.0
 QS| Multi grid cutoff [a.u.]: 1) grid level                               250.0
 QS|                           2) grid level                                83.3
 QS|                           3) grid level                                27.8
 QS|                           4) grid level                                 9.3
 QS| Grid level progression factor:                                          3.0
 QS| Relative density cutoff [a.u.]:                                        50.0
 QS| Interaction thresholds: eps_pgf_orb:                                1.0E-12
 QS|                         eps_filter_matrix:                          0.0E+00
 QS|                         eps_core_charge:                            1.0E-14
 QS|                         eps_rho_gspace:                             1.0E-12
 QS|                         eps_rho_rspace:                             1.0E-12
 QS|                         eps_gvg_rspace:                             1.0E-06
 QS|                         eps_ppl:                                    1.0E-02
 QS|                         eps_ppnl:                                   1.0E-08
 QS| GAPW|      One center basis from orbital basis primitives
 QS| GAPW|                   eps_fit:                                    1.0E-04
 QS| GAPW|                   eps_iso:                                    1.0E-12
 QS| GAPW|                   eps_svd:                                    1.0E-08
 QS| GAPW|                   eps_cpc:                                    1.0E-12
 QS| GAPW|   atom-r-grid: quadrature:                                     GC_LOG
 QS| GAPW|      atom-s-grid:  max l :                                          6
 QS| GAPW|      max_l_rho0 :                                                   2


 ATOMIC KIND INFORMATION

  1. Atomic kind: C                                     Number of atoms:       2

     Orbital Basis Set                                        aug-DZVP-MOLOPT-ae

       Number of orbital shell sets:                                           2
       Number of orbital shells:                                              10
       Number of primitive Cartesian functions:                               13
       Number of Cartesian basis functions:                                   35
       Number of spherical basis functions:                                   30
       Norm type:                                                              2

       Normalised Cartesian orbitals:

                        Set   Shell   Orbital            Exponent    Coefficient

                          1       1    2px               0.050000       0.000000
                                                         0.096935       0.005344
                                                         0.300899       0.144116
                                                         0.937529       0.673511
                                                         4.145546       1.425967
                          1       1    2py               0.050000       0.000000
                                                         0.096935       0.005344
                                                         0.300899       0.144116
                                                         0.937529       0.673511
                                                         4.145546       1.425967
                          1       1    2pz               0.050000       0.000000
                                                         0.096935       0.005344
                                                         0.300899       0.144116
                                                         0.937529       0.673511
                                                         4.145546       1.425967

                          1       2    3px               0.050000       0.000000
                                                         0.096935       0.066903
                                                         0.300899       0.082631
                                                         0.937529      -0.414500
                                                         4.145546      -0.833488
                          1       2    3py               0.050000       0.000000
                                                         0.096935       0.066903
                                                         0.300899       0.082631
                                                         0.937529      -0.414500
                                                         4.145546      -0.833488
                          1       2    3pz               0.050000       0.000000
                                                         0.096935       0.066903
                                                         0.300899       0.082631
                                                         0.937529      -0.414500
                                                         4.145546      -0.833488

                          1       3    4px               0.050000       0.052477
                                                         0.096935      -0.149600
                                                         0.300899      -0.031452
                                                         0.937529       0.106528
                                                         4.145546       0.000000
                          1       3    4py               0.050000       0.052477
                                                         0.096935      -0.149600
                                                         0.300899      -0.031452
                                                         0.937529       0.106528
                                                         4.145546       0.000000
                          1       3    4pz               0.050000       0.052477
                                                         0.096935      -0.149600
                                                         0.300899      -0.031452
                                                         0.937529       0.106528
                                                         4.145546       0.000000

                          1       4    3dx2              0.050000       0.000000
                                                         0.096935       0.001258
                                                         0.300899       0.105504
                                                         0.937529       0.830801
                                                         4.145546       0.718979
                          1       4    3dxy              0.050000       0.000000
                                                         0.096935       0.002179
                                                         0.300899       0.182739
                                                         0.937529       1.438990
                                                         4.145546       1.245309
                          1       4    3dxz              0.050000       0.000000
                                                         0.096935       0.002179
                                                         0.300899       0.182739
                                                         0.937529       1.438990
                                                         4.145546       1.245309
                          1       4    3dy2              0.050000       0.000000
                                                         0.096935       0.001258
                                                         0.300899       0.105504
                                                         0.937529       0.830801
                                                         4.145546       0.718979
                          1       4    3dyz              0.050000       0.000000
                                                         0.096935       0.002179
                                                         0.300899       0.182739
                                                         0.937529       1.438990
                                                         4.145546       1.245309
                          1       4    3dz2              0.050000       0.000000
                                                         0.096935       0.001258
                                                         0.300899       0.105504
                                                         0.937529       0.830801
                                                         4.145546       0.718979

                          1       5    4dx2              0.050000      -0.011665
                                                         0.096935       0.057456
                                                         0.300899      -0.258169
                                                         0.937529       0.000000
                                                         4.145546       0.000000
                          1       5    4dxy              0.050000      -0.020204
                                                         0.096935       0.099516
                                                         0.300899      -0.447162
                                                         0.937529       0.000000
                                                         4.145546       0.000000
                          1       5    4dxz              0.050000      -0.020204
                                                         0.096935       0.099516
                                                         0.300899      -0.447162
                                                         0.937529       0.000000
                                                         4.145546       0.000000
                          1       5    4dy2              0.050000      -0.011665
                                                         0.096935       0.057456
                                                         0.300899      -0.258169
                                                         0.937529       0.000000
                                                         4.145546       0.000000
                          1       5    4dyz              0.050000      -0.020204
                                                         0.096935       0.099516
                                                         0.300899      -0.447162
                                                         0.937529       0.000000
                                                         4.145546       0.000000
                          1       5    4dz2              0.050000      -0.011665
                                                         0.096935       0.057456
                                                         0.300899      -0.258169
                                                         0.937529       0.000000
                                                         4.145546       0.000000

                          1       6    4fx3              0.050000      -0.000180
                                                         0.096935       0.008160
                                                         0.300899       0.004002
                                                         0.937529       0.000000
                                                         4.145546       0.000000
                          1       6    4fx2y             0.050000      -0.000402
                                                         0.096935       0.018246
                                                         0.300899       0.008949
                                                         0.937529       0.000000
                                                         4.145546       0.000000
                          1       6    4fx2z             0.050000      -0.000402
                                                         0.096935       0.018246
                                                         0.300899       0.008949
                                                         0.937529       0.000000
                                                         4.145546       0.000000
                          1       6    4fxy2             0.050000      -0.000402
                                                         0.096935       0.018246
                                                         0.300899       0.008949
                                                         0.937529       0.000000
                                                         4.145546       0.000000
                          1       6    4fxyz             0.050000      -0.000696
                                                         0.096935       0.031603
                                                         0.300899       0.015500
                                                         0.937529       0.000000
                                                         4.145546       0.000000
                          1       6    4fxz2             0.050000      -0.000402
                                                         0.096935       0.018246
                                                         0.300899       0.008949
                                                         0.937529       0.000000
                                                         4.145546       0.000000
                          1       6    4fy3              0.050000      -0.000180
                                                         0.096935       0.008160
                                                         0.300899       0.004002
                                                         0.937529       0.000000
                                                         4.145546       0.000000
                          1       6    4fy2z             0.050000      -0.000402
                                                         0.096935       0.018246
                                                         0.300899       0.008949
                                                         0.937529       0.000000
                                                         4.145546       0.000000
                          1       6    4fyz2             0.050000      -0.000402
                                                         0.096935       0.018246
                                                         0.300899       0.008949
                                                         0.937529       0.000000
                                                         4.145546       0.000000
                          1       6    4fz3              0.050000      -0.000180
                                                         0.096935       0.008160
                                                         0.300899       0.004002
                                                         0.937529       0.000000
                                                         4.145546       0.000000

                          2       1    1s                0.060000       0.000000
                                                         0.161278       0.024253
                                                         0.523772      -0.029268
                                                         3.176528       0.666384
                                                        10.501907       2.110671
                                                        40.805234       2.242010
                                                       186.270922       1.801845
                                                      1238.394264      -0.490536

                          2       2    2s                0.060000       0.000000
                                                         0.161278       0.080328
                                                         0.523772       0.279468
                                                         3.176528      -0.079506
                                                        10.501907      -0.033488
                                                        40.805234       0.350132
                                                       186.270922      -0.108171
                                                      1238.394264       0.147138

                          2       3    3s                0.060000       0.000000
                                                         0.161278       0.225687
                                                         0.523772      -0.382710
                                                         3.176528      -0.308205
                                                        10.501907      -0.974990
                                                        40.805234      -2.174132
                                                       186.270922       1.755878
                                                      1238.394264     -12.484315

                          2       4    4s                0.060000      -0.055653
                                                         0.161278      -0.019607
                                                         0.523772       0.500289
                                                         3.176528       0.067234
                                                        10.501907       0.000000
                                                        40.805234       0.000000
                                                       186.270922       0.000000
                                                      1238.394264       0.000000

     RI Auxiliary Basis Set             RI_aug-DZVP-MOLOPT-ae_N_RI_035_s_p_d_f_g

       Number of orbital shell sets:                                          13
       Number of orbital shells:                                              13
       Number of primitive Cartesian functions:                               13
       Number of Cartesian basis functions:                                   40
       Number of spherical basis functions:                                   35
       Norm type:                                                              2

       Normalised Cartesian orbitals:

                        Set   Shell   Orbital            Exponent    Coefficient

                          1       1    1s                0.134513       0.158301

                          2       1    7px               0.345342       0.377357
                          2       1    7py               0.345342       0.377357
                          2       1    7pz               0.345342       0.377357

                          3       1    2s                0.391664       0.352854

                          4       1   11dx2              0.436474       0.385777
                          4       1   11dxy              0.436474       0.668185
                          4       1   11dxz              0.436474       0.668185
                          4       1   11dy2              0.436474       0.385777
                          4       1   11dyz              0.436474       0.668185
                          4       1   11dz2              0.436474       0.385777

                          5       1    8px               0.727642       0.957938
                          5       1    8py               0.727642       0.957938
                          5       1    8pz               0.727642       0.957938

                          6       1   13fx3              0.949659       1.310636
                          6       1   13fx2y             0.949659       2.930670
                          6       1   13fx2z             0.949659       2.930670
                          6       1   13fxy2             0.949659       2.930670
                          6       1   13fxyz             0.949659       5.076070
                          6       1   13fxz2             0.949659       2.930670
                          6       1   13fy3              0.949659       1.310636
                          6       1   13fy2z             0.949659       2.930670
                          6       1   13fyz2             0.949659       2.930670
                          6       1   13fz3              0.949659       1.310636

                          7       1   12dx2              1.330423       2.712634
                          7       1   12dxy              1.330423       4.698420
                          7       1   12dxz              1.330423       4.698420
                          7       1   12dy2              1.330423       2.712634
                          7       1   12dyz              1.330423       4.698420
                          7       1   12dz2              1.330423       2.712634

                          8       1    3s                1.404274       0.919388

                          9       1    9px               3.021876       5.679182
                          9       1    9py               3.021876       5.679182
                          9       1    9pz               3.021876       5.679182

                         10       1    4s                5.605818       2.596506

                         11       1   10px              16.034552      45.736309
                         11       1   10py              16.034552      45.736309
                         11       1   10pz              16.034552      45.736309

                         12       1    5s               21.900534       7.215246

                         13       1    6s               82.022187      19.424892

       Atomic covalent radius [Angstrom]:                                  0.770

       Atomic van der Waals radius [Angstrom]:                             1.700

     The atoms of this atomic kind are PAW atoms (GAPW):
       Hard Gaussian function radius:                                      1.512
       Rho0 radius:                                                        1.512
       Maximum GTO radius used for PAW projector construction:            24.566

     GAPW Soft Basis Set                                 aug-DZVP-MOLOPT-ae_soft

       Number of orbital shell sets:                                           2
       Number of orbital shells:                                              10
       Number of primitive Cartesian functions:                                9
       Number of Cartesian basis functions:                                   35
       Number of spherical basis functions:                                   30
       Norm type:                                                              2

       Normalised Cartesian orbitals:

                        Set   Shell   Orbital            Exponent    Coefficient

                          1       1    2px               0.050000       0.000000
                                                         0.096935       0.005344
                                                         0.300899       0.144116
                                                         0.937529       0.673511
                                                         4.145546       1.425967
                          1       1    2py               0.050000       0.000000
                                                         0.096935       0.005344
                                                         0.300899       0.144116
                                                         0.937529       0.673511
                                                         4.145546       1.425967
                          1       1    2pz               0.050000       0.000000
                                                         0.096935       0.005344
                                                         0.300899       0.144116
                                                         0.937529       0.673511
                                                         4.145546       1.425967

                          1       2    3px               0.050000       0.000000
                                                         0.096935       0.066903
                                                         0.300899       0.082631
                                                         0.937529      -0.414500
                                                         4.145546      -0.833488
                          1       2    3py               0.050000       0.000000
                                                         0.096935       0.066903
                                                         0.300899       0.082631
                                                         0.937529      -0.414500
                                                         4.145546      -0.833488
                          1       2    3pz               0.050000       0.000000
                                                         0.096935       0.066903
                                                         0.300899       0.082631
                                                         0.937529      -0.414500
                                                         4.145546      -0.833488

                          1       3    4px               0.050000       0.052477
                                                         0.096935      -0.149600
                                                         0.300899      -0.031452
                                                         0.937529       0.106528
                                                         4.145546       0.000000
                          1       3    4py               0.050000       0.052477
                                                         0.096935      -0.149600
                                                         0.300899      -0.031452
                                                         0.937529       0.106528
                                                         4.145546       0.000000
                          1       3    4pz               0.050000       0.052477
                                                         0.096935      -0.149600
                                                         0.300899      -0.031452
                                                         0.937529       0.106528
                                                         4.145546       0.000000

                          1       4    3dx2              0.050000       0.000000
                                                         0.096935       0.001258
                                                         0.300899       0.105504
                                                         0.937529       0.830801
                                                         4.145546       0.718979
                          1       4    3dxy              0.050000       0.000000
                                                         0.096935       0.002179
                                                         0.300899       0.182739
                                                         0.937529       1.438990
                                                         4.145546       1.245309
                          1       4    3dxz              0.050000       0.000000
                                                         0.096935       0.002179
                                                         0.300899       0.182739
                                                         0.937529       1.438990
                                                         4.145546       1.245309
                          1       4    3dy2              0.050000       0.000000
                                                         0.096935       0.001258
                                                         0.300899       0.105504
                                                         0.937529       0.830801
                                                         4.145546       0.718979
                          1       4    3dyz              0.050000       0.000000
                                                         0.096935       0.002179
                                                         0.300899       0.182739
                                                         0.937529       1.438990
                                                         4.145546       1.245309
                          1       4    3dz2              0.050000       0.000000
                                                         0.096935       0.001258
                                                         0.300899       0.105504
                                                         0.937529       0.830801
                                                         4.145546       0.718979

                          1       5    4dx2              0.050000      -0.011665
                                                         0.096935       0.057456
                                                         0.300899      -0.258169
                                                         0.937529       0.000000
                                                         4.145546       0.000000
                          1       5    4dxy              0.050000      -0.020204
                                                         0.096935       0.099516
                                                         0.300899      -0.447162
                                                         0.937529       0.000000
                                                         4.145546       0.000000
                          1       5    4dxz              0.050000      -0.020204
                                                         0.096935       0.099516
                                                         0.300899      -0.447162
                                                         0.937529       0.000000
                                                         4.145546       0.000000
                          1       5    4dy2              0.050000      -0.011665
                                                         0.096935       0.057456
                                                         0.300899      -0.258169
                                                         0.937529       0.000000
                                                         4.145546       0.000000
                          1       5    4dyz              0.050000      -0.020204
                                                         0.096935       0.099516
                                                         0.300899      -0.447162
                                                         0.937529       0.000000
                                                         4.145546       0.000000
                          1       5    4dz2              0.050000      -0.011665
                                                         0.096935       0.057456
                                                         0.300899      -0.258169
                                                         0.937529       0.000000
                                                         4.145546       0.000000

                          1       6    4fx3              0.050000      -0.000180
                                                         0.096935       0.008160
                                                         0.300899       0.004002
                                                         0.937529       0.000000
                                                         4.145546       0.000000
                          1       6    4fx2y             0.050000      -0.000402
                                                         0.096935       0.018246
                                                         0.300899       0.008949
                                                         0.937529       0.000000
                                                         4.145546       0.000000
                          1       6    4fx2z             0.050000      -0.000402
                                                         0.096935       0.018246
                                                         0.300899       0.008949
                                                         0.937529       0.000000
                                                         4.145546       0.000000
                          1       6    4fxy2             0.050000      -0.000402
                                                         0.096935       0.018246
                                                         0.300899       0.008949
                                                         0.937529       0.000000
                                                         4.145546       0.000000
                          1       6    4fxyz             0.050000      -0.000696
                                                         0.096935       0.031603
                                                         0.300899       0.015500
                                                         0.937529       0.000000
                                                         4.145546       0.000000
                          1       6    4fxz2             0.050000      -0.000402
                                                         0.096935       0.018246
                                                         0.300899       0.008949
                                                         0.937529       0.000000
                                                         4.145546       0.000000
                          1       6    4fy3              0.050000      -0.000180
                                                         0.096935       0.008160
                                                         0.300899       0.004002
                                                         0.937529       0.000000
                                                         4.145546       0.000000
                          1       6    4fy2z             0.050000      -0.000402
                                                         0.096935       0.018246
                                                         0.300899       0.008949
                                                         0.937529       0.000000
                                                         4.145546       0.000000
                          1       6    4fyz2             0.050000      -0.000402
                                                         0.096935       0.018246
                                                         0.300899       0.008949
                                                         0.937529       0.000000
                                                         4.145546       0.000000
                          1       6    4fz3              0.050000      -0.000180
                                                         0.096935       0.008160
                                                         0.300899       0.004002
                                                         0.937529       0.000000
                                                         4.145546       0.000000

                          2       1    1s                0.060000       0.000000
                                                         0.161278       0.024253
                                                         0.523772      -0.029268
                                                         3.176528       0.666384

                          2       2    2s                0.060000       0.000000
                                                         0.161278       0.080328
                                                         0.523772       0.279468
                                                         3.176528      -0.079506

                          2       3    3s                0.060000       0.000000
                                                         0.161278       0.225687
                                                         0.523772      -0.382710
                                                         3.176528      -0.308205

                          2       4    4s                0.060000      -0.055653
                                                         0.161278      -0.019607
                                                         0.523772       0.500289
                                                         3.176528       0.067234

     AE Potential information for                                            ALL

       Description:                                       All-electron potential
                                          Krack, Parrinello, PCCP 2, 2105 (2000)

       Gaussian exponent of the core charge distribution:               4.109048
       Electronic configuration (s p d ...):                           4   2   0


 MOLECULE KIND INFORMATION


 All atoms are their own molecule, skipping detailed information


 TOTAL NUMBERS AND MAXIMUM NUMBERS

  Total number of            - Atomic kinds:                                   1
                             - Atoms:                                          2
                             - Shell sets:                                     4
                             - Shells:                                        20
                             - Primitive Cartesian functions:                 26
                             - Cartesian basis functions:                     70
                             - Spherical basis functions:                     60

  Maximum angular momentum of the orbital basis functions:                     3


 MODULE QUICKSTEP: ATOMIC COORDINATES IN ANGSTROM

   Atom Kind Element         X             Y             Z       Z(eff)     Mass
      1    1 C     6     15.620000     15.000000     15.000000   6.0000  12.0107
      2    1 C     6     14.380000     15.000000     15.000000   6.0000  12.0107



 SCF PARAMETERS         Density guess:                                    ATOMIC
                        --------------------------------------------------------
                        max_scf:                                             500
                        max_scf_history:                                       0
                        max_diis:                                              4
                        --------------------------------------------------------
                        eps_scf:                                        1.00E-06
                        eps_scf_history:                                0.00E+00
                        eps_diis:                                       1.00E-01
                        eps_eigval:                                     1.00E-05
                        --------------------------------------------------------
                        level_shift [a.u.]:                             0.000000
                        added MOs                                        54    0
                        --------------------------------------------------------
                        Mixing method:                            BROYDEN_MIXING
                                                charge density mixing in g-space
                        --------------------------------------------------------
                        No outer SCF

 PW_GRID| Information for grid number                                          1
 PW_GRID| Grid distributed over                                    24 processors
 PW_GRID| Real space group dimensions                                    24    1
 PW_GRID| the grid is blocked:                                                NO
 PW_GRID| Cutoff [a.u.]                                                    250.0
 PW_GRID| spherical cutoff:                                                   NO
 PW_GRID|   Bounds   1           -202     202                Points:         405
 PW_GRID|   Bounds   2           -202     202                Points:         405
 PW_GRID|   Bounds   3           -202     202                Points:         405
 PW_GRID| Volume element (a.u.^3)  0.2743E-02     Volume (a.u.^3)    182205.0337
 PW_GRID| Grid span                                                    FULLSPACE
 PW_GRID|   Distribution                         Average         Max         Min
 PW_GRID|   G-Vectors                          2767921.9     2768175     2767770
 PW_GRID|   G-Rays                                6834.4        6835        6834
 PW_GRID|   Real Space Points                  2767921.9     2788425     2624400

 PW_GRID| Information for grid number                                          2
 PW_GRID| Number of the reference grid                                         1
 PW_GRID| Grid distributed over                                    24 processors
 PW_GRID| Real space group dimensions                                    24    1
 PW_GRID| the grid is blocked:                                                NO
 PW_GRID| Cutoff [a.u.]                                                     83.3
 PW_GRID| spherical cutoff:                                                   NO
 PW_GRID|   Bounds   1           -120     119                Points:         240
 PW_GRID|   Bounds   2           -120     119                Points:         240
 PW_GRID|   Bounds   3           -120     119                Points:         240
 PW_GRID| Volume element (a.u.^3)  0.1318E-01     Volume (a.u.^3)    182205.0337
 PW_GRID| Grid span                                                    FULLSPACE
 PW_GRID|   Distribution                         Average         Max         Min
 PW_GRID|   G-Vectors                           576000.0      576240      575760
 PW_GRID|   G-Rays                                2400.0        2401        2399
 PW_GRID|   Real Space Points                   576000.0      576000      576000

 PW_GRID| Information for grid number                                          3
 PW_GRID| Number of the reference grid                                         1
 PW_GRID| Grid distributed over                                    24 processors
 PW_GRID| Real space group dimensions                                    24    1
 PW_GRID| the grid is blocked:                                                NO
 PW_GRID| Cutoff [a.u.]                                                     27.8
 PW_GRID| spherical cutoff:                                                   NO
 PW_GRID|   Bounds   1            -67      67                Points:         135
 PW_GRID|   Bounds   2            -67      67                Points:         135
 PW_GRID|   Bounds   3            -67      67                Points:         135
 PW_GRID| Volume element (a.u.^3)  0.7406E-01     Volume (a.u.^3)    182205.0337
 PW_GRID| Grid span                                                    FULLSPACE
 PW_GRID|   Distribution                         Average         Max         Min
 PW_GRID|   G-Vectors                           102515.6      102735      102330
 PW_GRID|   G-Rays                                 759.4         761         758
 PW_GRID|   Real Space Points                   102515.6      109350       91125

 PW_GRID| Information for grid number                                          4
 PW_GRID| Number of the reference grid                                         1
 PW_GRID| Grid distributed over                                    24 processors
 PW_GRID| Real space group dimensions                                    24    1
 PW_GRID| the grid is blocked:                                                NO
 PW_GRID| Cutoff [a.u.]                                                      9.3
 PW_GRID| spherical cutoff:                                                   NO
 PW_GRID|   Bounds   1            -40      39                Points:          80
 PW_GRID|   Bounds   2            -40      39                Points:          80
 PW_GRID|   Bounds   3            -40      39                Points:          80
 PW_GRID| Volume element (a.u.^3)  0.3559         Volume (a.u.^3)    182205.0337
 PW_GRID| Grid span                                                    FULLSPACE
 PW_GRID|   Distribution                         Average         Max         Min
 PW_GRID|   G-Vectors                            21333.3       21360       21280
 PW_GRID|   G-Rays                                 266.7         267         266
 PW_GRID|   Real Space Points                    21333.3       25600       19200

 POISSON| Solver                                                         WAVELET
 POISSON| Wavelet| Scaling function                                           40
 POISSON| Periodicity                                                       NONE

 RS_GRID| Information for grid number                                          1
 RS_GRID|   Bounds   1           -202     202                Points:         405
 RS_GRID|   Bounds   2           -202     202                Points:         405
 RS_GRID|   Bounds   3           -202     202                Points:         405
 RS_GRID| Real space distribution over                                  4 groups
 RS_GRID| Real space distribution along direction                              2
 RS_GRID| Border size                                                         35
 RS_GRID| Real space distribution over                                  6 groups
 RS_GRID| Real space distribution along direction                              3
 RS_GRID| Border size                                                         35
 RS_GRID|   Distribution                         Average         Max         Min
 RS_GRID|   Planes                                 171.2         172         171
 RS_GRID|   Distribution                         Average         Max         Min
 RS_GRID|   Planes                                 137.5         138         137

 RS_GRID| Information for grid number                                          2
 RS_GRID|   Bounds   1           -120     119                Points:         240
 RS_GRID|   Bounds   2           -120     119                Points:         240
 RS_GRID|   Bounds   3           -120     119                Points:         240
 RS_GRID| Real space distribution over                                  4 groups
 RS_GRID| Real space distribution along direction                              2
 RS_GRID| Border size                                                         38
 RS_GRID| Real space distribution over                                  6 groups
 RS_GRID| Real space distribution along direction                              3
 RS_GRID| Border size                                                         38
 RS_GRID|   Distribution                         Average         Max         Min
 RS_GRID|   Planes                                 136.0         136         136
 RS_GRID|   Distribution                         Average         Max         Min
 RS_GRID|   Planes                                 116.0         116         116

 RS_GRID| Information for grid number                                          3
 RS_GRID|   Bounds   1            -67      67                Points:         135
 RS_GRID|   Bounds   2            -67      67                Points:         135
 RS_GRID|   Bounds   3            -67      67                Points:         135
 RS_GRID| Real space fully replicated
 RS_GRID| Group size                                                           1

 RS_GRID| Information for grid number                                          4
 RS_GRID|   Bounds   1            -40      39                Points:          80
 RS_GRID|   Bounds   2            -40      39                Points:          80
 RS_GRID|   Bounds   3            -40      39                Points:          80
 RS_GRID| Real space fully replicated
 RS_GRID| Group size                                                           1

  HFX_INFO| Replica ID:                                                        1
  HFX_INFO| FRACTION:                                               0.2500000000
  HFX_INFO| Interaction Potential:                                       COULOMB
  HFX_INFO| EPS_SCHWARZ:                                                 1.0E-10
  HFX_INFO| EPS_SCHWARZ_FORCES                                           1.0E-08
  HFX_INFO| EPS_STORAGE_SCALING:                                         1.0E+00
  HFX_INFO| NBINS:                                                            64
  HFX_INFO| BLOCK_SIZE:                                                        1
  HFX_INFO| Number of periodic shells considered:                           NONE
  HFX_INFO| Number of periodic cells considered:                            NONE

 
 RI-RPA| using GPW style
 

 OVERLAP MATRIX CONDITION NUMBER
 1-Norm Condition Number (Estimate)
   CN : |A|*|A^-1|:  5.324E+000 *  8.956E+002   = 4.769E+003  Log(1-CN):  3.6784
 1-Norm and 2-Norm Condition Numbers using Diagonalization
   CN : |A|*|A^-1|:  5.324E+000 *  8.956E+002   = 4.769E+003  Log(1-CN):  3.6784
   CN : max/min ev:  3.467E+000 /  1.709E-003   = 2.029E+003  Log(2-CN):  3.3072

 Number of electrons:                                                         12
 Number of occupied orbitals:                                                  6
 Number of molecular orbitals:                                                60

 Number of orbital functions:                                                 60
 Number of independent orbital functions:                                     60

 Extrapolation method: initial_guess

 Atomic guess: The first density matrix is obtained in terms of atomic orbitals
               and electronic configurations assigned to each atomic kind

 Guess for atomic kind: C

 Electronic structure
    Total number of core electrons                                          0.00
    Total number of valence electrons                                       6.00
    Total number of electrons                                               6.00
    Multiplicity                                                   not specified
    S      2.00  2.00
    P      2.00


 *******************************************************************************
                  Iteration          Convergence                     Energy [au]
 *******************************************************************************
                          1        0.133902                     -37.363061759844
                          2        0.102325                     -37.368472442706
                          3        0.860737E-03                 -37.376215693871
                          4        0.849047E-04                 -37.376216293501
                          5        0.219397E-06                 -37.376216298714

 Energy components [Hartree]           Total Energy ::          -37.376216298714
                                        Band Energy ::          -21.245708131868
                                     Kinetic Energy ::           37.464666877769
                                   Potential Energy ::          -74.840883176484
                                      Virial (-V/T) ::            1.997639093406
                                        Core Energy ::          -50.271057779086
                                          XC Energy ::           -4.736056292831
                                     Coulomb Energy ::           17.630897773203

 Orbital energies  State     L     Occupation   Energy[a.u.]          Energy[eV]

                       1     0          2.000      -9.941022         -270.508975
                       2     0          2.000      -0.490185          -13.338601

                       1     1          2.000      -0.191647           -5.214984


 Total Electron Density at R=0:                                       116.283880
 Re-scaling the density matrix to get the right number of electrons
                  # Electrons              Trace(P)               Scaling factor
                           12                12.000                        1.000


 SCF WAVEFUNCTION OPTIMIZATION

  Step     Update method      Time    Convergence         Total energy    Change
  ------------------------------------------------------------------------------

  HFX_MEM_INFO| Est. max. program size before HFX [MiB]:                    2159
  HFX_MEM_INFO| Number of cart. primitive ERI's calculated:            674513758
  HFX_MEM_INFO| Number of sph. ERI's calculated:                         4860000
  HFX_MEM_INFO| Number of sph. ERI's stored in-core:                     4860000
  HFX_MEM_INFO| Number of sph. ERI's stored on disk:                           0
  HFX_MEM_INFO| Number of sph. ERI's calculated on the fly:                    0
  HFX_MEM_INFO| Total memory consumption ERI's RAM [MiB]:                     20
  HFX_MEM_INFO| Whereof max-vals [MiB]:                                        1
  HFX_MEM_INFO| Total compression factor ERI's RAM:                         1.87
  HFX_MEM_INFO| Total memory consumption ERI's disk [MiB]:                     0
  HFX_MEM_INFO| Total compression factor ERI's disk:                        0.00
  HFX_MEM_INFO| Size of density/Fock matrix [MiB]:                             0
  HFX_MEM_INFO| Size of buffers [MiB]:                                        13
  HFX_MEM_INFO| Est. max. program size after HFX  [MiB]:                    2692

     1 NoMix/Diag. 0.10E+00   18.9     1.31515393       -75.9310665379 -7.59E+01
     2 Broy./Diag. 0.10E+00    4.8     0.03786267       -75.1120750673  8.19E-01
     3 Broy./Diag. 0.10E+00    4.9     0.03612222       -74.7722713269  3.40E-01
     4 Broy./Diag. 0.10E+00    4.9     0.11297437       -75.1044644284 -3.32E-01
     5 Broy./Diag. 0.10E+00    4.9     0.03035415       -75.5941547410 -4.90E-01
     6 Broy./Diag. 0.10E+00    5.1     0.00543255       -75.6729189492 -7.88E-02
     7 Broy./Diag. 0.10E+00    5.1     0.00530417       -75.6657737796  7.15E-03
     8 Broy./Diag. 0.10E+00    5.1     0.00091954       -75.6769877144 -1.12E-02
     9 Broy./Diag. 0.10E+00    5.3     0.00183013       -75.6710913973  5.90E-03
    10 Broy./Diag. 0.10E+00    5.4     0.00300336       -75.6795459025 -8.45E-03
    11 Broy./Diag. 0.10E+00    5.3     0.00295092       -75.6968052718 -1.73E-02
    12 Broy./Diag. 0.10E+00    5.4     0.00332821       -75.7153868303 -1.86E-02
    13 Broy./Diag. 0.10E+00    5.3     0.00072513       -75.7284432109 -1.31E-02
    14 Broy./Diag. 0.10E+00    5.3     0.00205284       -75.7188822037  9.56E-03
    15 Broy./Diag. 0.10E+00    5.4     0.00034867       -75.7128604857  6.02E-03
    16 Broy./Diag. 0.10E+00    5.4     0.00027211       -75.7151758074 -2.32E-03
    17 Broy./Diag. 0.10E+00    5.4     0.00070564       -75.7169562185 -1.78E-03
    18 Broy./Diag. 0.10E+00    5.4     0.00105219       -75.7214948996 -4.54E-03
    19 Broy./Diag. 0.10E+00    5.3     0.00013553       -75.7250245881 -3.53E-03
    20 Broy./Diag. 0.10E+00    5.3     0.00020360       -75.7246290513  3.96E-04
    21 Broy./Diag. 0.10E+00    5.3     0.00009516       -75.7239210238  7.08E-04
    22 Broy./Diag. 0.10E+00    5.3     0.00044873       -75.7215842219  2.34E-03
    23 Broy./Diag. 0.10E+00    5.4     0.00014110       -75.7204773987  1.11E-03
    24 Broy./Diag. 0.10E+00    5.4     0.00023403       -75.7217864510 -1.31E-03
    25 Broy./Diag. 0.10E+00    5.4     0.00005883       -75.7224017083 -6.15E-04
    26 Broy./Diag. 0.10E+00    5.4     0.00005303       -75.7221282353  2.73E-04
    27 Broy./Diag. 0.10E+00    5.3     0.00008431       -75.7224064736 -2.78E-04
    28 Broy./Diag. 0.10E+00    5.4     0.00003197       -75.7227349643 -3.28E-04
    29 Broy./Diag. 0.10E+00    5.3     0.00006767       -75.7229907589 -2.56E-04
    30 Broy./Diag. 0.10E+00    5.4     0.00008336       -75.7230493103 -5.86E-05
    31 Broy./Diag. 0.10E+00    5.4     0.00014982       -75.7226397039  4.10E-04
    32 Broy./Diag. 0.10E+00    5.3     0.00006529       -75.7224393691  2.00E-04
    33 Broy./Diag. 0.10E+00    5.4     0.00005158       -75.7225991903 -1.60E-04
    34 Broy./Diag. 0.10E+00    5.4     0.00003622       -75.7225949126  4.28E-06
    35 Broy./Diag. 0.10E+00    5.4     0.00006477       -75.7224729393  1.22E-04
    36 Broy./Diag. 0.10E+00    5.3     0.00005220       -75.7223900586  8.29E-05
    37 Broy./Diag. 0.10E+00    5.4     0.00003994       -75.7223848288  5.23E-06
    38 Broy./Diag. 0.10E+00    5.4     0.00002992       -75.7223827642  2.06E-06
    39 Broy./Diag. 0.10E+00    5.3     0.00003938       -75.7224276491 -4.49E-05
    40 Broy./Diag. 0.10E+00    5.3     0.00003544       -75.7224573340 -2.97E-05
    41 Broy./Diag. 0.10E+00    5.4     0.00004679       -75.7224652017 -7.87E-06
    42 Broy./Diag. 0.10E+00    5.4     0.00003227       -75.7224360986  2.91E-05
    43 Broy./Diag. 0.10E+00    5.3     0.00002857       -75.7223971262  3.90E-05
    44 Broy./Diag. 0.10E+00    5.3     0.00003234       -75.7223683556  2.88E-05
    45 Broy./Diag. 0.10E+00    5.3     0.00003698       -75.7224107584 -4.24E-05
    46 Broy./Diag. 0.10E+00    5.4     0.00003123       -75.7224747862 -6.40E-05
    47 Broy./Diag. 0.10E+00    5.3     0.00003044       -75.7224326217  4.22E-05
    48 Broy./Diag. 0.10E+00    5.4     0.00002690       -75.7224048442  2.78E-05
    49 Broy./Diag. 0.10E+00    5.4     0.00004371       -75.7225231141 -1.18E-04
    50 Broy./Diag. 0.10E+00    5.4     0.00004789       -75.7225802543 -5.71E-05
    51 Broy./Diag. 0.10E+00    5.5     0.00005517       -75.7225441263  3.61E-05
    52 Broy./Diag. 0.10E+00    5.4     0.00005433       -75.7225174616  2.67E-05
    53 Broy./Diag. 0.10E+00    5.4     0.00005191       -75.7225146032  2.86E-06
    54 Broy./Diag. 0.10E+00    5.3     0.00005748       -75.7225047758  9.83E-06
    55 Broy./Diag. 0.10E+00    5.4     0.00005666       -75.7224989847  5.79E-06
    56 Broy./Diag. 0.10E+00    5.4     0.00004706       -75.7224992123 -2.28E-07
    57 Broy./Diag. 0.10E+00    5.4     0.00005237       -75.7225027440 -3.53E-06
    58 Broy./Diag. 0.10E+00    5.4     0.00005186       -75.7225198419 -1.71E-05
    59 Broy./Diag. 0.10E+00    5.3     0.00004868       -75.7225285916 -8.75E-06
    60 Broy./Diag. 0.10E+00    5.3     0.00004946       -75.7225249163  3.68E-06
    61 Broy./Diag. 0.10E+00    5.3     0.00004641       -75.7225288381 -3.92E-06
    62 Broy./Diag. 0.10E+00    5.3     0.00004260       -75.7225327987 -3.96E-06
    63 Broy./Diag. 0.10E+00    5.3     0.00004157       -75.7225335406 -7.42E-07
    64 Broy./Diag. 0.10E+00    5.4     0.00003838       -75.7225394701 -5.93E-06
    65 Broy./Diag. 0.10E+00    5.4     0.00002759       -75.7225323915  7.08E-06
    66 Broy./Diag. 0.10E+00    5.4     0.00002343       -75.7225129135  1.95E-05
    67 Broy./Diag. 0.10E+00    5.3     0.00003096       -75.7225188152 -5.90E-06
    68 Broy./Diag. 0.10E+00    5.3     0.00002348       -75.7225374259 -1.86E-05
    69 Broy./Diag. 0.10E+00    5.3     0.00003315       -75.7225239790  1.34E-05
    70 Broy./Diag. 0.10E+00    5.3     0.00002836       -75.7225387619 -1.48E-05
    71 Broy./Diag. 0.10E+00    5.4     0.00002436       -75.7225419561 -3.19E-06
    72 Broy./Diag. 0.10E+00    5.3     0.00001674       -75.7225453572 -3.40E-06
    73 Broy./Diag. 0.10E+00    5.4     0.00001278       -75.7225470938 -1.74E-06
    74 Broy./Diag. 0.10E+00    5.4     0.00002580       -75.7225348505  1.22E-05
    75 Broy./Diag. 0.10E+00    5.3     0.00003670       -75.7225677416 -3.29E-05
    76 Broy./Diag. 0.10E+00    5.3     0.00001508       -75.7226080484 -4.03E-05
    77 Broy./Diag. 0.10E+00    5.3     0.00005244       -75.7225250078  8.30E-05
    78 Broy./Diag. 0.10E+00    5.3     0.00009234       -75.7224421133  8.29E-05
    79 Broy./Diag. 0.10E+00    5.3     0.00007170       -75.7226777456 -2.36E-04
    80 Broy./Diag. 0.10E+00    5.3     0.00006138       -75.7226192203  5.85E-05
    81 Broy./Diag. 0.10E+00    5.4     0.00037507       -75.7228853319 -2.66E-04
    82 Broy./Diag. 0.10E+00    5.4     0.00043178       -75.7227460653  1.39E-04
    83 Broy./Diag. 0.10E+00    5.4     0.00015172       -75.7224984543  2.48E-04
    84 Broy./Diag. 0.10E+00    5.3     0.00017535       -75.7224096985  8.88E-05
    85 Broy./Diag. 0.10E+00    5.3     0.00012715       -75.7221708168  2.39E-04
    86 Broy./Diag. 0.10E+00    5.3     0.00011951       -75.7221726533 -1.84E-06
    87 Broy./Diag. 0.10E+00    5.4     0.00020420       -75.7222792257 -1.07E-04
    88 Broy./Diag. 0.10E+00    5.3     0.00022151       -75.7221388896  1.40E-04
    89 Broy./Diag. 0.10E+00    5.4     0.00017161       -75.7220261671  1.13E-04
    90 Broy./Diag. 0.10E+00    5.4     0.00024778       -75.7221366061 -1.10E-04
    91 Broy./Diag. 0.10E+00    5.4     0.00033082       -75.7223413976 -2.05E-04
    92 Broy./Diag. 0.10E+00    5.4     0.00042091       -75.7225944336 -2.53E-04
    93 Broy./Diag. 0.10E+00    5.3     0.00051464       -75.7225255414  6.89E-05
    94 Broy./Diag. 0.10E+00    5.4     0.00066076       -75.7225563572 -3.08E-05
    95 Broy./Diag. 0.10E+00    5.3     0.00082982       -75.7225968605 -4.05E-05
    96 Broy./Diag. 0.10E+00    5.5     0.00099537       -75.7225004671  9.64E-05
    97 Broy./Diag. 0.10E+00    5.5     0.00126921       -75.7223253330  1.75E-04
    98 Broy./Diag. 0.10E+00    5.4     0.00159318       -75.7221583966  1.67E-04
    99 Broy./Diag. 0.10E+00    5.4     0.00203850       -75.7222646884 -1.06E-04
   100 Broy./Diag. 0.10E+00    5.3     0.00257803       -75.7224385789 -1.74E-04
   101 Broy./Diag. 0.10E+00    5.3     0.00320890       -75.7223311770  1.07E-04
   102 Broy./Diag. 0.10E+00    5.4     0.00402578       -75.7219089135  4.22E-04
   103 Broy./Diag. 0.10E+00    5.3     0.00510290       -75.7215623086  3.47E-04
   104 Broy./Diag. 0.10E+00    5.3     0.00639692       -75.7211956407  3.67E-04
   105 Broy./Diag. 0.10E+00    5.4     0.00783560       -75.7202309555  9.65E-04
   106 Broy./Diag. 0.10E+00    5.5     0.00975062       -75.7187547850  1.48E-03
   107 Broy./Diag. 0.10E+00    5.3     0.01210574       -75.7169357678  1.82E-03
   108 Broy./Diag. 0.10E+00    5.3     0.01496495       -75.7145178702  2.42E-03
   109 Broy./Diag. 0.10E+00    5.3     0.01822891       -75.7109429145  3.57E-03
   110 Broy./Diag. 0.10E+00    5.3     0.02164047       -75.7047376439  6.21E-03
   111 Broy./Diag. 0.10E+00    5.3     0.02483351       -75.6945904347  1.01E-02
   112 Broy./Diag. 0.10E+00    5.4     0.03182634       -75.6796169038  1.50E-02
   113 Broy./Diag. 0.10E+00    5.5     0.04385426       -75.6584355783  2.12E-02
   114 Broy./Diag. 0.10E+00    5.4     0.05616068       -75.6282420828  3.02E-02
   115 Broy./Diag. 0.10E+00    5.4     0.06688616       -75.5889669928  3.93E-02
   116 Broy./Diag. 0.10E+00    5.3     0.07352600       -75.5422609845  4.67E-02
   117 Broy./Diag. 0.10E+00    5.4     0.07409052       -75.4919862422  5.03E-02
   118 Broy./Diag. 0.10E+00    5.3     0.06825274       -75.4432320645  4.88E-02
   119 Broy./Diag. 0.10E+00    5.4     0.05838430       -75.3981541506  4.51E-02
   120 Broy./Diag. 0.10E+00    5.5     0.04672211       -75.3602797001  3.79E-02
   121 Broy./Diag. 0.10E+00    5.4     0.03532720       -75.3302379344  3.00E-02
   122 Broy./Diag. 0.10E+00    5.4     0.02627140       -75.3103862770  1.99E-02
   123 Broy./Diag. 0.10E+00    5.3     0.02063638       -75.2888385582  2.15E-02
   124 Broy./Diag. 0.10E+00    5.3     0.02177003       -75.2675939891  2.12E-02
   125 Broy./Diag. 0.10E+00    5.4     0.02084848       -75.2426067746  2.50E-02
   126 Broy./Diag. 0.10E+00    5.3     0.02142113       -75.2193811770  2.32E-02
   127 Broy./Diag. 0.10E+00    5.3     0.02498730       -75.1916170464  2.78E-02
   128 Broy./Diag. 0.10E+00    5.3     0.03677690       -75.1668351387  2.48E-02
   129 Broy./Diag. 0.10E+00    5.4     0.06160853       -75.1424948935  2.43E-02

 *** WARNING in pw/ps_wavelet_methods.F:238 :: Density non-zero on the ***
 *** edges of the unit cell: wrong results in WAVELET solver           ***

   130 Broy./Diag. 0.10E+00    5.4     0.08259409       -75.1492760934 -6.78E-03

 *** WARNING in pw/ps_wavelet_methods.F:238 :: Density non-zero on the ***
 *** edges of the unit cell: wrong results in WAVELET solver           ***

   131 Broy./Diag. 0.10E+00    5.3     0.08659195       -75.2694669808 -1.20E-01

 *** WARNING in pw/ps_wavelet_methods.F:238 :: Density non-zero on the ***
 *** edges of the unit cell: wrong results in WAVELET solver           ***

   132 Broy./Diag. 0.10E+00    5.3     0.07509337       -75.5592803701 -2.90E-01

 *** WARNING in pw/ps_wavelet_methods.F:238 :: Density non-zero on the ***
 *** edges of the unit cell: wrong results in WAVELET solver           ***

   133 Broy./Diag. 0.10E+00    5.3     0.06764901       -75.6222830025 -6.30E-02

 *** WARNING in pw/ps_wavelet_methods.F:238 :: Density non-zero on the ***
 *** edges of the unit cell: wrong results in WAVELET solver           ***

   134 Broy./Diag. 0.10E+00    5.3     0.02297999       -75.5404277606  8.19E-02

 *** WARNING in pw/ps_wavelet_methods.F:238 :: Density non-zero on the ***
 *** edges of the unit cell: wrong results in WAVELET solver           ***

   135 Broy./Diag. 0.10E+00    5.3     0.03827100       -75.6966786382 -1.56E-01
   136 Broy./Diag. 0.10E+00    5.3     0.06359206       -75.8840892337 -1.87E-01
   137 Broy./Diag. 0.10E+00    5.4     0.15327082       -75.7027211796  1.81E-01
   138 Broy./Diag. 0.10E+00    5.4     0.06020912       -75.6064271450  9.63E-02
   139 Broy./Diag. 0.10E+00    5.4     0.04161685       -75.7176129221 -1.11E-01

 *** WARNING in pw/ps_wavelet_methods.F:238 :: Density non-zero on the ***
 *** edges of the unit cell: wrong results in WAVELET solver           ***

   140 Broy./Diag. 0.10E+00    5.3     0.03068039       -75.8252145903 -1.08E-01

 *** WARNING in pw/ps_wavelet_methods.F:238 :: Density non-zero on the ***
 *** edges of the unit cell: wrong results in WAVELET solver           ***

   141 Broy./Diag. 0.10E+00    5.3     0.03873569       -75.9644695047 -1.39E-01

 *** WARNING in pw/ps_wavelet_methods.F:238 :: Density non-zero on the ***
 *** edges of the unit cell: wrong results in WAVELET solver           ***

   142 Broy./Diag. 0.10E+00    5.3     0.02930550       -75.9774372327 -1.30E-02

 *** WARNING in pw/ps_wavelet_methods.F:238 :: Density non-zero on the ***
[...]
   418 Broy./Diag. 0.10E+00    5.3     0.01378028       -75.7302449084  1.59E-03
   419 Broy./Diag. 0.10E+00    5.5     0.00921333       -75.7309102656 -6.65E-04
   420 Broy./Diag. 0.10E+00    5.3     0.00945741       -75.7307757862  1.34E-04
   421 Broy./Diag. 0.10E+00    5.3     0.00879260       -75.7283791762  2.40E-03
   422 Broy./Diag. 0.10E+00    5.3     0.01033367       -75.7233770596  5.00E-03
   423 Broy./Diag. 0.10E+00    5.3     0.00597514       -75.7183730121  5.00E-03
   424 Broy./Diag. 0.10E+00    5.4     0.00903321       -75.7154066321  2.97E-03
   425 Broy./Diag. 0.10E+00    5.4     0.01988935       -75.7207468569 -5.34E-03
   426 Broy./Diag. 0.10E+00    5.4     0.02838756       -75.7220846595 -1.34E-03
   427 Broy./Diag. 0.10E+00    5.4     0.03948022       -75.7225130051 -4.28E-04
   428 Broy./Diag. 0.10E+00    5.4     0.02712006       -75.7260161424 -3.50E-03
   429 Broy./Diag. 0.10E+00    5.3     0.02074946       -75.7329311412 -6.91E-03
   430 Broy./Diag. 0.10E+00    5.3     0.02563673       -75.7433086016 -1.04E-02
   431 Broy./Diag. 0.10E+00    5.3     0.02014774       -75.7418547693  1.45E-03
   432 Broy./Diag. 0.10E+00    5.3     0.02190269       -75.7456598101 -3.81E-03
   433 Broy./Diag. 0.10E+00    5.5     0.02732110       -75.7491809728 -3.52E-03
   434 Broy./Diag. 0.10E+00    5.3     0.03226245       -75.7479520920  1.23E-03
   435 Broy./Diag. 0.10E+00    5.3     0.03701584       -75.7442307883  3.72E-03
   436 Broy./Diag. 0.10E+00    5.5     0.04104741       -75.7352280056  9.00E-03
   437 Broy./Diag. 0.10E+00    5.4     0.04045380       -75.7135250712  2.17E-02
   438 Broy./Diag. 0.10E+00    5.4     0.05082438       -75.6887837573  2.47E-02
   439 Broy./Diag. 0.10E+00    5.3     0.06313899       -75.6526755907  3.61E-02
   440 Broy./Diag. 0.10E+00    5.4     0.07076948       -75.6096150823  4.31E-02
   441 Broy./Diag. 0.10E+00    5.4     0.07175701       -75.5637966768  4.58E-02
   442 Broy./Diag. 0.10E+00    5.3     0.06178025       -75.5236441913  4.02E-02
   443 Broy./Diag. 0.10E+00    5.4     0.05732013       -75.4836629553  4.00E-02
   444 Broy./Diag. 0.10E+00    5.4     0.04962034       -75.4546163530  2.90E-02
   445 Broy./Diag. 0.10E+00    5.4     0.04241194       -75.4287273092  2.59E-02
   446 Broy./Diag. 0.10E+00    5.3     0.05466573       -75.3988721097  2.99E-02
   447 Broy./Diag. 0.10E+00    5.4     0.05781665       -75.3766541348  2.22E-02
   448 Broy./Diag. 0.10E+00    5.4     0.04771460       -75.3507703338  2.59E-02
   449 Broy./Diag. 0.10E+00    5.4     0.05084006       -75.3189145043  3.19E-02
   450 Broy./Diag. 0.10E+00    5.4     0.06464090       -75.2757853165  4.31E-02
   451 Broy./Diag. 0.10E+00    5.3     0.05379568       -75.3018156756 -2.60E-02
   452 Broy./Diag. 0.10E+00    5.5     0.05462853       -75.3372337497 -3.54E-02
   453 Broy./Diag. 0.10E+00    5.4     0.04217374       -75.1916390877  1.46E-01
   454 Broy./Diag. 0.10E+00    5.3     0.04804093       -75.3667979317 -1.75E-01
   455 Broy./Diag. 0.10E+00    5.4     0.08465834       -75.4108824125 -4.41E-02
   456 Broy./Diag. 0.10E+00    5.4     0.09388061       -75.4298306909 -1.89E-02
   457 Broy./Diag. 0.10E+00    5.4     0.07618983       -75.5405588849 -1.11E-01
   458 Broy./Diag. 0.10E+00    5.4     0.13726680       -75.6310697581 -9.05E-02
   459 Broy./Diag. 0.10E+00    5.3     0.14573104       -75.6923601212 -6.13E-02
   460 Broy./Diag. 0.10E+00    5.3     0.06714317       -75.6925777942 -2.18E-04
   461 Broy./Diag. 0.10E+00    5.4     0.05569152       -75.7190456208 -2.65E-02
   462 Broy./Diag. 0.10E+00    5.3     0.03736925       -75.7355970018 -1.66E-02
   463 Broy./Diag. 0.10E+00    5.3     0.02696492       -75.7617850863 -2.62E-02
   464 Broy./Diag. 0.10E+00    5.4     0.02882346       -75.7725392239 -1.08E-02
   465 Broy./Diag. 0.10E+00    5.4     0.02883809       -75.7719079491  6.31E-04
   466 Broy./Diag. 0.10E+00    5.4     0.02537848       -75.7818985207 -9.99E-03
   467 Broy./Diag. 0.10E+00    5.3     0.03078343       -75.7838479246 -1.95E-03
   468 Broy./Diag. 0.10E+00    5.4     0.02974462       -75.7700582242  1.38E-02
   469 Broy./Diag. 0.10E+00    5.4     0.04344986       -75.7821314327 -1.21E-02
   470 Broy./Diag. 0.10E+00    5.3     0.04495652       -75.7609228674  2.12E-02
   471 Broy./Diag. 0.10E+00    5.4     0.04843190       -75.7333218205  2.76E-02
   472 Broy./Diag. 0.10E+00    5.4     0.04701028       -75.7126658496  2.07E-02
   473 Broy./Diag. 0.10E+00    5.4     0.04912505       -75.6632532024  4.94E-02
   474 Broy./Diag. 0.10E+00    5.4     0.06346440       -75.6154669928  4.78E-02
   475 Broy./Diag. 0.10E+00    5.3     0.05747364       -75.5824629896  3.30E-02
   476 Broy./Diag. 0.10E+00    5.4     0.05652435       -75.5469257175  3.55E-02
   477 Broy./Diag. 0.10E+00    5.3     0.03895009       -75.5297811139  1.71E-02
   478 Broy./Diag. 0.10E+00    5.4     0.04004179       -75.5220123249  7.77E-03
   479 Broy./Diag. 0.10E+00    5.3     0.04563213       -75.4810861250  4.09E-02
   480 Broy./Diag. 0.10E+00    5.6     0.04954829       -75.4056536610  7.54E-02
   481 Broy./Diag. 0.10E+00    5.4     0.05355053       -75.4591733324 -5.35E-02
   482 Broy./Diag. 0.10E+00    5.4     0.05652098       -75.4781547666 -1.90E-02
   483 Broy./Diag. 0.10E+00    5.4     0.08304032       -75.4139533577  6.42E-02
   484 Broy./Diag. 0.10E+00    5.3     0.08013082       -75.4296452155 -1.57E-02
   485 Broy./Diag. 0.10E+00    5.3     0.06201240       -75.5047536456 -7.51E-02
   486 Broy./Diag. 0.10E+00    5.3     0.08393584       -75.5043033129  4.50E-04
   487 Broy./Diag. 0.10E+00    5.3     0.09581735       -75.5147609115 -1.05E-02
   488 Broy./Diag. 0.10E+00    5.4     0.08806403       -75.5404850391 -2.57E-02
   489 Broy./Diag. 0.10E+00    5.5     0.11790942       -75.5692205387 -2.87E-02
   490 Broy./Diag. 0.10E+00    5.3     0.05759555       -75.5647170372  4.50E-03
   491 Broy./Diag. 0.10E+00    5.4     0.05796105       -75.6304182753 -6.57E-02
   492 Broy./Diag. 0.10E+00    5.3     0.09615866       -75.7031524302 -7.27E-02
   493 Broy./Diag. 0.10E+00    5.4     0.08491021       -75.7620195234 -5.89E-02
   494 Broy./Diag. 0.10E+00    5.4     0.04618782       -75.7906544159 -2.86E-02
   495 Broy./Diag. 0.10E+00    5.3     0.03215064       -75.8157084663 -2.51E-02
   496 Broy./Diag. 0.10E+00    5.4     0.05663652       -75.8455187008 -2.98E-02
   497 Broy./Diag. 0.10E+00    5.4     0.03797281       -75.8241046870  2.14E-02
   498 Broy./Diag. 0.10E+00    5.4     0.18631471       -75.7348175826  8.93E-02
   499 Broy./Diag. 0.10E+00    5.4     0.07555757       -75.8114864377 -7.67E-02
   500 Broy./Diag. 0.10E+00    5.4     0.06477179       -75.8053815994  6.10E-03

  Leaving inner SCF loop after reaching   500 steps.


  Electronic density on regular grids:         -8.6199921286        3.3800078714
  Core density on regular grids:               12.0000000000        0.0000000000
  Hard and soft densities (Lebedev):          -49.4247814308      -46.0446091644
  Total Rho_soft + Rho1_hard - Rho1_soft      -12.0001643950
  Total charge density (r-space):              -0.0001643950
  Total Rho_soft + Rho0_soft (g-space):        -0.0001645370

  Overlap energy of the core charge distribution:               0.00003125550742
  Self energy of the core charge distribution:                -58.22549323810243
  Core Hamiltonian energy:                                    -15.25586516588553
  Hartree energy:                                              16.63945489960297
  Exchange-correlation energy:                                 -2.78744736280922
  Hartree-Fock Exchange energy:                                -2.51095817242144

  GAPW| Exc from hard and soft atomic rho1:                    -5.14709442480892
  GAPW| local Eh = 1 center integrals:                         -8.51800939045467

  Total energy:                                               -75.80538159937181

 *******************************************************************************
 *   ___                                                                       *
 *  /   \                                                                      *
 * [ABORT]                                                                     *
 *  \___/     SCF run NOT converged. To continue the calculation regardless,   *
 *    |             please set the keyword IGNORE_CONVERGENCE_FAILURE.         *
 *  O/|                                                                        *
 * /| |                                                                        *
 * / \                                                            qs_scf.F:611 *
 *******************************************************************************


 ===== Routine Calling Stack ===== 

            3 scf_env_do_scf
            2 qs_energies
            1 CP2K

 *******************************************************************************
 *   ___                                                                       *
 *  /   \                                                                      *
 * [ABORT]                                                                     *
 *  \___/     SCF run NOT converged. To continue the calculation regardless,   *
 *    |             please set the keyword IGNORE_CONVERGENCE_FAILURE.         *
 *  O/|                                                                        *
 * /| |                                                                        *
 * / \                                                            qs_scf.F:611 *
 *******************************************************************************


 ===== Routine Calling Stack ===== 

            3 scf_env_do_scf
            2 qs_energies
            1 CP2K

 *******************************************************************************
 *   ___                                                                       *
 *  /   \                                                                      *
 * [ABORT]                                                                     *
 *  \___/     SCF run NOT converged. To continue the calculation regardless,   *
 *    |             please set the keyword IGNORE_CONVERGENCE_FAILURE.         *
 *  O/|                                                                        *
 * /| |                                                                        *
 * / \                                                            qs_scf.F:611 *
 *******************************************************************************


 ===== Routine Calling Stack ===== 

            3 scf_env_do_scf
            2 qs_energies
            1 CP2K

 *******************************************************************************
 *   ___                                                                       *
 *  /   \                                                                      *
 * [ABORT]                                                                     *
 *  \___/     SCF run NOT converged. To continue the calculation regardless,   *
 *    |             please set the keyword IGNORE_CONVERGENCE_FAILURE.         *
 *  O/|                                                                        *
 * /| |                                                                        *
 * / \                                                            qs_scf.F:611 *
 *******************************************************************************


 ===== Routine Calling Stack ===== 

            3 scf_env_do_scf
            2 qs_energies
            1 CP2K

 *******************************************************************************
 *   ___                                                                       *
 *  /   \                                                                      *
 * [ABORT]                                                                     *
 *  \___/     SCF run NOT converged. To continue the calculation regardless,   *
 *    |             please set the keyword IGNORE_CONVERGENCE_FAILURE.         *
 *  O/|                                                                        *
 * /| |                                                                        *
 * / \                                                            qs_scf.F:611 *
 *******************************************************************************


 ===== Routine Calling Stack ===== 

            3 scf_env_do_scf
            2 qs_energies
            1 CP2K

 *******************************************************************************
 *   ___                                                                       *
 *  /   \                                                                      *
 * [ABORT]                                                                     *
 *  \___/     SCF run NOT converged. To continue the calculation regardless,   *
 *    |             please set the keyword IGNORE_CONVERGENCE_FAILURE.         *
 *  O/|                                                                        *
 * /| |                                                                        *
 * / \                                                            qs_scf.F:611 *
 *******************************************************************************


 ===== Routine Calling Stack ===== 

            3 scf_env_do_scf
            2 qs_energies
            1 CP2K

 *******************************************************************************
 *   ___                                                                       *
 *  /   \                                                                      *
 * [ABORT]                                                                     *
 *  \___/     SCF run NOT converged. To continue the calculation regardless,   *
 *    |             please set the keyword IGNORE_CONVERGENCE_FAILURE.         *
 *  O/|                                                                        *
 * /| |                                                                        *
 * / \                                                            qs_scf.F:611 *
 *******************************************************************************


 ===== Routine Calling Stack ===== 

            3 scf_env_do_scf
            2 qs_energies
            1 CP2K

 *******************************************************************************
 *   ___                                                                       *
 *  /   \                                                                      *
 * [ABORT]                                                                     *
 *  \___/     SCF run NOT converged. To continue the calculation regardless,   *
 *    |             please set the keyword IGNORE_CONVERGENCE_FAILURE.         *
 *  O/|                                                                        *
 * /| |                                                                        *
 * / \                                                            qs_scf.F:611 *
 *******************************************************************************


 ===== Routine Calling Stack ===== 

            3 scf_env_do_scf
            2 qs_energies
            1 CP2K

 *******************************************************************************
 *   ___                                                                       *
 *  /   \                                                                      *
 * [ABORT]                                                                     *
 *  \___/     SCF run NOT converged. To continue the calculation regardless,   *
 *    |             please set the keyword IGNORE_CONVERGENCE_FAILURE.         *
 *  O/|                                                                        *
 * /| |                                                                        *
 * / \                                                            qs_scf.F:611 *
 *******************************************************************************


 ===== Routine Calling Stack ===== 

            3 scf_env_do_scf
            2 qs_energies
            1 CP2K

 *******************************************************************************
 *   ___                                                                       *
 *  /   \                                                                      *
 * [ABORT]                                                                     *
 *  \___/     SCF run NOT converged. To continue the calculation regardless,   *
 *    |             please set the keyword IGNORE_CONVERGENCE_FAILURE.         *
 *  O/|                                                                        *
 * /| |                                                                        *
 * / \                                                            qs_scf.F:611 *
 *******************************************************************************


 ===== Routine Calling Stack ===== 

            3 scf_env_do_scf
            2 qs_energies
            1 CP2K

 *******************************************************************************
 *   ___                                                                       *
 *  /   \                                                                      *
 * [ABORT]                                                                     *
 *  \___/     SCF run NOT converged. To continue the calculation regardless,   *
 *    |             please set the keyword IGNORE_CONVERGENCE_FAILURE.         *
 *  O/|                                                                        *
 * /| |                                                                        *
 * / \                                                            qs_scf.F:611 *
 *******************************************************************************


 ===== Routine Calling Stack ===== 

            3 scf_env_do_scf
            2 qs_energies
            1 CP2K

 *******************************************************************************
 *   ___                                                                       *
 *  /   \                                                                      *
 * [ABORT]                                                                     *
 *  \___/     SCF run NOT converged. To continue the calculation regardless,   *
 *    |             please set the keyword IGNORE_CONVERGENCE_FAILURE.         *
 *  O/|                                                                        *
 * /| |                                                                        *
 * / \                                                            qs_scf.F:611 *
 *******************************************************************************


 ===== Routine Calling Stack ===== 

            3 scf_env_do_scf
            2 qs_energies
            1 CP2K

 *******************************************************************************
 *   ___                                                                       *
 *  /   \                                                                      *
 * [ABORT]                                                                     *
 *  \___/     SCF run NOT converged. To continue the calculation regardless,   *
 *    |             please set the keyword IGNORE_CONVERGENCE_FAILURE.         *
 *  O/|                                                                        *
 * /| |                                                                        *
 * / \                                                            qs_scf.F:611 *
 *******************************************************************************


 ===== Routine Calling Stack ===== 

            3 scf_env_do_scf
            2 qs_energies
            1 CP2K
