 DBCSR| CPU Multiplication driver                                           BLAS (U)
 DBCSR| Multrec recursion limit                                              512 (U)
 DBCSR| Multiplication stack size                                           1000 (D)
 DBCSR| Maximum elements for images                                    UNLIMITED (U)
 DBCSR| Multiplicative factor virtual images                                   1 (U)
 DBCSR| Use multiplication densification                                       T (D)
 DBCSR| Multiplication size stacks                                             3 (U)
 DBCSR| Use memory pool for CPU allocation                                     F (U)
 DBCSR| Number of 3D layers                                               SINGLE (U)
 DBCSR| Use MPI memory allocation                                              F (U)
 DBCSR| Use RMA algorithm                                                      F (U)
 DBCSR| Use Communication thread                                               T (U)
 DBCSR| Communication thread load                                             75 (D)
 DBCSR| MPI: My process id                                                     0
 DBCSR| MPI: Number of processes                                              48
 DBCSR| OMP: Current number of threads                                         4
 DBCSR| OMP: Max number of threads                                             4
 DBCSR| Split modifier for TAS multiplication algorithm                  1.0E+00 (U)


  **** **** ******  **  PROGRAM STARTED AT               2025-03-19 01:23:45.851
 ***** ** ***  *** **   PROGRAM STARTED ON                          i03r08c03s06
 **    ****   ******    PROGRAM STARTED BY                               di38fab
 ***** **    ** ** **   PROGRAM PROCESS ID                               3485321
  **** **  *******  **  PROGRAM STARTED IN /hppfs/scratch/04/di38fab/05_MOL/W4-1
                                           1+ALK/bh/aug-cc-pVTZ/GW+BSE

 CP2K| version string:                 CP2K version 2025.1 (Development Version)
 CP2K| source code revision number:                                  git:d2e611a
 CP2K| cp2kflags: omp libint fftw3 libxc parallel scalapack max_contr=4         
 CP2K| is freely available from                            https://www.cp2k.org/
 CP2K| Program compiled at                       Thu 06 Mar 2025 05:09:20 PM CET
 CP2K| Program compiled on                                               login02
 CP2K| Program compiled for                                        Supermuc-foss
 CP2K| Data directory path                  /hppfs/work/pn36zo/di38fab/cp2k/data
 CP2K| Input file name                                                    GW.inp

 GLOBAL| Force Environment number                                              1
 GLOBAL| Basis set file name            /hppfs/scratch/04/di38fab/04_TMD/BASIS_A
 GLOBAL| Potential file name            /hppfs/work/pn36zo/di38fab/cp2k/data/ALL
 GLOBAL| MM Potential file name                                     MM_POTENTIAL
 GLOBAL| Coordinate file name                                      __STD_INPUT__
 GLOBAL| Method name                                                        CP2K
 GLOBAL| Project name                                                       MoS2
 GLOBAL| Run type                                                         ENERGY
 GLOBAL| FFT library                                                       FFTW3
 GLOBAL| Diagonalization library                                       ScaLAPACK
 GLOBAL| DGEMM library                                                      BLAS
 GLOBAL| Orthonormality check for eigenvectors                          DISABLED
 GLOBAL| Matrix multiplication library                                 ScaLAPACK
 GLOBAL| All-to-all communication in single precision                          F
 GLOBAL| FFTs using library dependent lengths                                  F
 GLOBAL| Grid backend                                                       AUTO
 GLOBAL| Global print level                                               MEDIUM
 GLOBAL| MPI I/O enabled                                                       T
 GLOBAL| Total number of message passing processes                            48
 GLOBAL| Number of threads for this process                                    4
 GLOBAL| This output is from process                                           0
 GLOBAL| OpenMP stack size per thread (OMP_STACKSIZE)                    default
 GLOBAL| CPU model name             Intel(R) Xeon(R) Platinum 8174 CPU @ 3.10GHz

 MEMORY| system memory details [Kb]
 MEMORY|                        rank 0           min           max       average
 MEMORY| MemTotal             98436664      98436660      98436664      98436663
 MEMORY| MemFree              83885320      83845232      84343904      84055149
 MEMORY| Buffers                     0             0             0             0
 MEMORY| Cached                2419440       2392152       2419440       2403638
 MEMORY| Slab                  1241116       1180284       1260516       1218636
 MEMORY| SReclaimable           280380        268756        280380        273183
 MEMORY| MemLikelyFree        86585140      86520832      87013988      86731970


 *** Fundamental physical constants (SI units) ***

 *** Literature: B. J. Mohr and B. N. Taylor,
 ***             CODATA recommended values of the fundamental physical
 ***             constants: 2006, Web Version 5.1
 ***             http://physics.nist.gov/constants

 Speed of light in vacuum [m/s]                             2.99792458000000E+08
 Magnetic constant or permeability of vacuum [N/A**2]       1.25663706143592E-06
 Electric constant or permittivity of vacuum [F/m]          8.85418781762039E-12
 Planck constant (h) [J*s]                                  6.62606896000000E-34
 Planck constant (h-bar) [J*s]                              1.05457162825177E-34
 Elementary charge [C]                                      1.60217648700000E-19
 Electron mass [kg]                                         9.10938215000000E-31
 Electron g factor [ ]                                     -2.00231930436220E+00
 Proton mass [kg]                                           1.67262163700000E-27
 Fine-structure constant                                    7.29735253760000E-03
 Rydberg constant [1/m]                                     1.09737315685270E+07
 Avogadro constant [1/mol]                                  6.02214179000000E+23
 Boltzmann constant [J/K]                                   1.38065040000000E-23
 Atomic mass unit [kg]                                      1.66053878200000E-27
 Bohr radius [m]                                            5.29177208590000E-11

 *** Conversion factors ***

 [u] -> [a.u.]                                              1.82288848426455E+03
 [Angstrom] -> [Bohr] = [a.u.]                              1.88972613288564E+00
 [a.u.] = [Bohr] -> [Angstrom]                              5.29177208590000E-01
 [a.u.] -> [s]                                              2.41888432650478E-17
 [a.u.] -> [fs]                                             2.41888432650478E-02
 [a.u.] -> [J]                                              4.35974393937059E-18
 [a.u.] -> [N]                                              8.23872205491840E-08
 [a.u.] -> [K]                                              3.15774647902944E+05
 [a.u.] -> [kJ/mol]                                         2.62549961709828E+03
 [a.u.] -> [kcal/mol]                                       6.27509468713739E+02
 [a.u.] -> [Pa]                                             2.94210107994716E+13
 [a.u.] -> [bar]                                            2.94210107994716E+08
 [a.u.] -> [atm]                                            2.90362800883016E+08
 [a.u.] -> [eV]                                             2.72113838565563E+01
 [a.u.] -> [Hz]                                             6.57968392072181E+15
 [a.u.] -> [1/cm] (wave numbers)                            2.19474631370540E+05
 [a.u./Bohr**2] -> [1/cm]                                   5.14048714338585E+03
 

 CELL_TOP| Volume [angstrom^3]:                                     27000.000000
 CELL_TOP| Vector a [angstrom    30.000     0.000     0.000   |a| =    30.000000
 CELL_TOP| Vector b [angstrom     0.000    30.000     0.000   |b| =    30.000000
 CELL_TOP| Vector c [angstrom     0.000     0.000    30.000   |c| =    30.000000
 CELL_TOP| Angle (b,c), alpha [degree]:                                90.000000
 CELL_TOP| Angle (a,c), beta  [degree]:                                90.000000
 CELL_TOP| Angle (a,b), gamma [degree]:                                90.000000
 CELL_TOP| Numerically orthorhombic:                                         YES
 CELL_TOP| Periodicity                                                      NONE

 GENERATE|  Preliminary Number of Bonds generated:                             0
 GENERATE|  Achieved consistency in connectivity generation.

 CELL| Volume [angstrom^3]:                                         27000.000000
 CELL| Vector a [angstrom]:      30.000     0.000     0.000   |a| =    30.000000
 CELL| Vector b [angstrom]:       0.000    30.000     0.000   |b| =    30.000000
 CELL| Vector c [angstrom]:       0.000     0.000    30.000   |c| =    30.000000
 CELL| Angle (b,c), alpha [degree]:                                    90.000000
 CELL| Angle (a,c), beta  [degree]:                                    90.000000
 CELL| Angle (a,b), gamma [degree]:                                    90.000000
 CELL| Numerically orthorhombic:                                             YES
 CELL| Periodicity                                                          NONE

 CELL_REF| Volume [angstrom^3]:                                     27000.000000
 CELL_REF| Vector a [angstrom    30.000     0.000     0.000   |a| =    30.000000
 CELL_REF| Vector b [angstrom     0.000    30.000     0.000   |b| =    30.000000
 CELL_REF| Vector c [angstrom     0.000     0.000    30.000   |c| =    30.000000
 CELL_REF| Angle (b,c), alpha [degree]:                                90.000000
 CELL_REF| Angle (a,c), beta  [degree]:                                90.000000
 CELL_REF| Angle (a,b), gamma [degree]:                                90.000000
 CELL_REF| Numerically orthorhombic:                                         YES
 CELL_REF| Periodicity                                                      NONE

 *******************************************************************************
 *******************************************************************************
 **                                                                           **
 **     #####                         ##              ##                      **
 **    ##   ##            ##          ##              ##                      **
 **   ##     ##                       ##            ######                    **
 **   ##     ##  ##   ##  ##   #####  ##  ##   ####   ##    #####    #####    **
 **   ##     ##  ##   ##  ##  ##      ## ##   ##      ##   ##   ##  ##   ##   **
 **   ##  ## ##  ##   ##  ##  ##      ####     ###    ##   ######   ######    **
 **    ##  ###   ##   ##  ##  ##      ## ##      ##   ##   ##       ##        **
 **     #######   #####   ##   #####  ##  ##  ####    ##    #####   ##        **
 **           ##                                                    ##        **
 **                                                                           **
 **                                                ... make the atoms dance   **
 **                                                                           **
 **            Copyright (C) by CP2K developers group (2000-2025)             **
 **                      J. Chem. Phys. 152, 194103 (2020)                    **
 **                                                                           **
 *******************************************************************************

 DFT| Spin restricted Kohn-Sham (RKS) calculation                            RKS
 DFT| Multiplicity                                                             1
 DFT| Number of spin states                                                    1
 DFT| Charge                                                                   0
 DFT| Self-interaction correction (SIC)                                       NO
 DFT| Cutoffs: density                                              1.000000E-10
 DFT|          gradient                                             1.000000E-10
 DFT|          tau                                                  1.000000E-10
 DFT|          cutoff_smoothing_range                               0.000000E+00
 DFT| XC density smoothing                                                  NONE
 DFT| XC derivatives                                                          PW

 FUNCTIONAL| PBE:
 FUNCTIONAL| J.P.Perdew, K.Burke, M.Ernzerhof, Phys. Rev. Letter, vol. 77, n 18,
 FUNCTIONAL|  pp. 3865-3868, (1996)sx=0.750sc=1.000{spin unpolarized}           


 QS| Method:                                                                GAPW
 QS| Density plane wave grid type                        NON-SPHERICAL FULLSPACE
 QS| Number of grid levels:                                                    4
 QS| Density cutoff [a.u.]:                                                250.0
 QS| Multi grid cutoff [a.u.]: 1) grid level                               250.0
 QS|                           2) grid level                                83.3
 QS|                           3) grid level                                27.8
 QS|                           4) grid level                                 9.3
 QS| Grid level progression factor:                                          3.0
 QS| Relative density cutoff [a.u.]:                                        50.0
 QS| Interaction thresholds: eps_pgf_orb:                                1.0E-12
 QS|                         eps_filter_matrix:                          0.0E+00
 QS|                         eps_core_charge:                            1.0E-14
 QS|                         eps_rho_gspace:                             1.0E-12
 QS|                         eps_rho_rspace:                             1.0E-12
 QS|                         eps_gvg_rspace:                             1.0E-06
 QS|                         eps_ppl:                                    1.0E-02
 QS|                         eps_ppnl:                                   1.0E-08
 QS| GAPW|      One center basis from orbital basis primitives
 QS| GAPW|                   eps_fit:                                    1.0E-04
 QS| GAPW|                   eps_iso:                                    1.0E-12
 QS| GAPW|                   eps_svd:                                    1.0E-08
 QS| GAPW|                   eps_cpc:                                    1.0E-12
 QS| GAPW|   atom-r-grid: quadrature:                                     GC_LOG
 QS| GAPW|      atom-s-grid:  max l :                                          6
 QS| GAPW|      max_l_rho0 :                                                   2


 ATOMIC KIND INFORMATION

  1. Atomic kind: B                                     Number of atoms:       1

     Orbital Basis Set                                               aug-cc-pVTZ

       Number of orbital shell sets:                                           8
       Number of orbital shells:                                              14
       Number of primitive Cartesian functions:                               22
       Number of Cartesian basis functions:                                   55
       Number of spherical basis functions:                                   46
       Norm type:                                                              2

       Normalised Cartesian orbitals:

                        Set   Shell   Orbital            Exponent    Coefficient

                          1       1    1px               0.020960       0.011368
                          1       1    1py               0.020960       0.011368
                          1       1    1pz               0.020960       0.011368

                          2       1    1s                0.029140       0.050266

                          3       1    1dx2              0.060400       0.012112
                          3       1    1dxy              0.060400       0.020979
                          3       1    1dxz              0.060400       0.020979
                          3       1    1dy2              0.060400       0.012112
                          3       1    1dyz              0.060400       0.020979
                          3       1    1dz2              0.060400       0.012112

                          4       1    1px              12.050000       0.000000
                                                         2.613000       0.000000
                                                         0.747500       0.000000
                                                         0.238500       0.237575
                                                         0.076980       0.000000
                          4       1    1py              12.050000       0.000000
                                                         2.613000       0.000000
                                                         0.747500       0.000000
                                                         0.238500       0.237575
                                                         0.076980       0.000000
                          4       1    1pz              12.050000       0.000000
                                                         2.613000       0.000000
                                                         0.747500       0.000000
                                                         0.238500       0.237575
                                                         0.076980       0.000000

                          4       2    2px              12.050000       0.419799
                                                         2.613000       0.378346
                                                         0.747500       0.274704
                                                         0.238500       0.119802
                                                         0.076980       0.020442
                          4       2    2py              12.050000       0.419799
                                                         2.613000       0.378346
                                                         0.747500       0.274704
                                                         0.238500       0.119802
                                                         0.076980       0.020442
                          4       2    2pz              12.050000       0.419799
                                                         2.613000       0.378346
                                                         0.747500       0.274704
                                                         0.238500       0.119802
                                                         0.076980       0.020442

                          4       3    3px              12.050000       0.000000
                                                         2.613000       0.000000
                                                         0.747500       0.000000
                                                         0.238500       0.000000
                                                         0.076980       0.057798
                          4       3    3py              12.050000       0.000000
                                                         2.613000       0.000000
                                                         0.747500       0.000000
                                                         0.238500       0.000000
                                                         0.076980       0.057798
                          4       3    3pz              12.050000       0.000000
                                                         2.613000       0.000000
                                                         0.747500       0.000000
                                                         0.238500       0.000000
                                                         0.076980       0.057798

                          5       1    1s             5473.000000       0.251693
                                                       820.900000       0.469014
                                                       186.800000       0.790419
                                                        52.830000       1.179298
                                                        17.080000       1.428459
                                                         5.999000       1.188585
                                                         2.208000       0.441446
                                                         0.587900       0.017636
                                                         0.241500      -0.002344
                                                         0.086100       0.000268

                          5       2    2s             5473.000000       0.000000
                                                       820.900000       0.000000
                                                       186.800000       0.000000
                                                        52.830000       0.000000
                                                        17.080000       0.000000
                                                         5.999000       0.000000
                                                         2.208000       0.000000
                                                         0.587900       0.478506
                                                         0.241500       0.000000
                                                         0.086100       0.000000

                          5       3    3s             5473.000000      -0.050792
                                                       820.900000      -0.094874
                                                       186.800000      -0.161476
                                                        52.830000      -0.246960
                                                        17.080000      -0.321186
                                                         5.999000      -0.325113
                                                         2.208000      -0.214071
                                                         0.587900       0.057472
                                                         0.241500       0.146329
                                                         0.086100       0.046561

                          5       4    4s             5473.000000       0.000000
                                                       820.900000       0.000000
                                                       186.800000       0.000000
                                                        52.830000       0.000000
                                                        17.080000       0.000000
                                                         5.999000       0.000000
                                                         2.208000       0.000000
                                                         0.587900       0.000000
                                                         0.241500       0.000000
                                                         0.086100       0.113282

                          6       1    1fx3              0.163000       0.024853
                          6       1    1fx2y             0.163000       0.055573
                          6       1    1fx2z             0.163000       0.055573
                          6       1    1fxy2             0.163000       0.055573
                          6       1    1fxyz             0.163000       0.096255
                          6       1    1fxz2             0.163000       0.055573
                          6       1    1fy3              0.163000       0.024853
                          6       1    1fy2z             0.163000       0.055573
                          6       1    1fyz2             0.163000       0.055573
                          6       1    1fz3              0.163000       0.024853

                          7       1    1dx2              0.661000       0.797558
                                                         0.199000       0.000000
                          7       1    1dxy              0.661000       1.381410
                                                         0.199000       0.000000
                          7       1    1dxz              0.661000       1.381410
                                                         0.199000       0.000000
                          7       1    1dy2              0.661000       0.797558
                                                         0.199000       0.000000
                          7       1    1dyz              0.661000       1.381410
                                                         0.199000       0.000000
                          7       1    1dz2              0.661000       0.797558
                                                         0.199000       0.000000

                          7       2    2dx2              0.661000       0.000000
                                                         0.199000       0.097589
                          7       2    2dxy              0.661000       0.000000
                                                         0.199000       0.169030
                          7       2    2dxz              0.661000       0.000000
                                                         0.199000       0.169030
                          7       2    2dy2              0.661000       0.000000
                                                         0.199000       0.097589
                          7       2    2dyz              0.661000       0.000000
                                                         0.199000       0.169030
                          7       2    2dz2              0.661000       0.000000
                                                         0.199000       0.097589

                          8       1    1fx3              0.490000       0.295730
                          8       1    1fx2y             0.490000       0.661273
                          8       1    1fx2z             0.490000       0.661273
                          8       1    1fxy2             0.490000       0.661273
                          8       1    1fxyz             0.490000       1.145358
                          8       1    1fxz2             0.490000       0.661273
                          8       1    1fy3              0.490000       0.295730
                          8       1    1fy2z             0.490000       0.661273
                          8       1    1fyz2             0.490000       0.661273
                          8       1    1fz3              0.490000       0.295730

     RI Auxiliary Basis Set                                    aug-cc-pVTZ-OPTRI

       Number of orbital shell sets:                                          18
       Number of orbital shells:                                              18
       Number of primitive Cartesian functions:                               18
       Number of Cartesian basis functions:                                  103
       Number of spherical basis functions:                                   78
       Norm type:                                                              2

       Normalised Cartesian orbitals:

                        Set   Shell   Orbital            Exponent    Coefficient

                          1       1    1px               0.040116       0.025591
                          1       1    1py               0.040116       0.025591
                          1       1    1pz               0.040116       0.025591

                          2       1    1s                0.046164       0.070980

                          3       1    1dx2              0.090864       0.024751
                          3       1    1dxy              0.090864       0.042870
                          3       1    1dxz              0.090864       0.042870
                          3       1    1dy2              0.090864       0.024751
                          3       1    1dyz              0.090864       0.042870
                          3       1    1dz2              0.090864       0.024751

                          4       1    1px               0.115608       0.096089
                          4       1    1py               0.115608       0.096089
                          4       1    1pz               0.115608       0.096089

                          5       1    1s                0.244788       0.248029

                          6       1    1fx3              0.270071       0.077407
                          6       1    1fx2y             0.270071       0.173087
                          6       1    1fx2z             0.270071       0.173087
                          6       1    1fxy2             0.270071       0.173087
                          6       1    1fxyz             0.270071       0.299796
                          6       1    1fxz2             0.270071       0.173087
                          6       1    1fy3              0.270071       0.077407
                          6       1    1fy2z             0.270071       0.173087
                          6       1    1fyz2             0.270071       0.173087
                          6       1    1fz3              0.270071       0.077407

                          7       1    1gx4              0.375331       0.075175
                          7       1    1gx3y             0.375331       0.198895
                          7       1    1gx3z             0.375331       0.198895
                          7       1    1gx2y2            0.375331       0.256773
                          7       1    1gx2yz            0.375331       0.444743
                          7       1    1gx2z2            0.375331       0.256773
                          7       1    1gxy3             0.375331       0.198895
                          7       1    1gxy2z            0.375331       0.444743
                          7       1    1gxyz2            0.375331       0.444743
                          7       1    1gxz3             0.375331       0.198895
                          7       1    1gy4              0.375331       0.075175
                          7       1    1gy3z             0.375331       0.198895
                          7       1    1gy2z2            0.375331       0.256773
                          7       1    1gyz3             0.375331       0.198895
                          7       1    1gz4              0.375331       0.075175

                          8       1    1dx2              0.393664       0.322017
                          8       1    1dxy              0.393664       0.557751
                          8       1    1dxz              0.393664       0.557751
                          8       1    1dy2              0.393664       0.322017
                          8       1    1dyz              0.393664       0.557751
                          8       1    1dz2              0.393664       0.322017

                          9       1    1px               0.419074       0.480622
                          9       1    1py               0.419074       0.480622
                          9       1    1pz               0.419074       0.480622

                         10       1    1px               0.752855       0.999607
                         10       1    1py               0.752855       0.999607
                         10       1    1pz               0.752855       0.999607

                         11       1    1fx3              0.878780       1.100740
                         11       1    1fx2y             0.878780       2.461330
                         11       1    1fx2z             0.878780       2.461330
                         11       1    1fxy2             0.878780       2.461330
                         11       1    1fxyz             0.878780       4.263148
                         11       1    1fxz2             0.878780       2.461330
                         11       1    1fy3              0.878780       1.100740
                         11       1    1fy2z             0.878780       2.461330
                         11       1    1fyz2             0.878780       2.461330
                         11       1    1fz3              0.878780       1.100740

                         12       1    1s                0.880079       0.647592

                         13       1    1gx4              1.022372       1.182660
                         13       1    1gx3y             1.022372       3.129025
                         13       1    1gx3z             1.022372       3.129025
                         13       1    1gx2y2            1.022372       4.039554
                         13       1    1gx2yz            1.022372       6.996713
                         13       1    1gx2z2            1.022372       4.039554
                         13       1    1gxy3             1.022372       3.129025
                         13       1    1gxy2z            1.022372       6.996713
                         13       1    1gxyz2            1.022372       6.996713
                         13       1    1gxz3             1.022372       3.129025
                         13       1    1gy4              1.022372       1.182660
                         13       1    1gy3z             1.022372       3.129025
                         13       1    1gy2z2            1.022372       4.039554
                         13       1    1gyz3             1.022372       3.129025
                         13       1    1gz4              1.022372       1.182660

                         14       1    1dx2              1.397498       2.956474
                         14       1    1dxy              1.397498       5.120763
                         14       1    1dxz              1.397498       5.120763
                         14       1    1dy2              1.397498       2.956474
                         14       1    1dyz              1.397498       5.120763
                         14       1    1dz2              1.397498       2.956474

                         15       1    1fx3              1.884032       6.122137
                         15       1    1fx2y             1.884032      13.689515
                         15       1    1fx2z             1.884032      13.689515
                         15       1    1fxy2             1.884032      13.689515
                         15       1    1fxyz             1.884032      23.710936
                         15       1    1fxz2             1.884032      13.689515
                         15       1    1fy3              1.884032       6.122137
                         15       1    1fy2z             1.884032      13.689515
                         15       1    1fyz2             1.884032      13.689515
                         15       1    1fz3              1.884032       6.122137

                         16       1    1s                2.267148       1.316801

                         17       1    1px               2.484142       4.445398
                         17       1    1py               2.484142       4.445398
                         17       1    1pz               2.484142       4.445398

                         18       1    1dx2              4.847375      26.064298
                         18       1    1dxy              4.847375      45.144689
                         18       1    1dxz              4.847375      45.144689
                         18       1    1dy2              4.847375      26.064298
                         18       1    1dyz              4.847375      45.144689
                         18       1    1dz2              4.847375      26.064298

       Atomic covalent radius [Angstrom]:                                  0.820

       Atomic van der Waals radius [Angstrom]:                             1.920

     The atoms of this atomic kind are PAW atoms (GAPW):
       Hard Gaussian function radius:                                      1.512
       Rho0 radius:                                                        1.512
       Maximum GTO radius used for PAW projector construction:            24.566

     GAPW Soft Basis Set                                        aug-cc-pVTZ_soft

       Number of orbital shell sets:                                           8
       Number of orbital shells:                                              14
       Number of primitive Cartesian functions:                               15
       Number of Cartesian basis functions:                                   55
       Number of spherical basis functions:                                   46
       Norm type:                                                              2

       Normalised Cartesian orbitals:

                        Set   Shell   Orbital            Exponent    Coefficient

                          1       1    1px               0.020960       0.011368
                          1       1    1py               0.020960       0.011368
                          1       1    1pz               0.020960       0.011368

                          2       1    1s                0.029140       0.050266

                          3       1    1dx2              0.060400       0.012112
                          3       1    1dxy              0.060400       0.020979
                          3       1    1dxz              0.060400       0.020979
                          3       1    1dy2              0.060400       0.012112
                          3       1    1dyz              0.060400       0.020979
                          3       1    1dz2              0.060400       0.012112

                          4       1    1px               2.613000       0.000000
                                                         0.747500       0.000000
                                                         0.238500       0.237575
                                                         0.076980       0.000000
                          4       1    1py               2.613000       0.000000
                                                         0.747500       0.000000
                                                         0.238500       0.237575
                                                         0.076980       0.000000
                          4       1    1pz               2.613000       0.000000
                                                         0.747500       0.000000
                                                         0.238500       0.237575
                                                         0.076980       0.000000

                          4       2    2px               2.613000       0.378346
                                                         0.747500       0.274704
                                                         0.238500       0.119802
                                                         0.076980       0.020442
                          4       2    2py               2.613000       0.378346
                                                         0.747500       0.274704
                                                         0.238500       0.119802
                                                         0.076980       0.020442
                          4       2    2pz               2.613000       0.378346
                                                         0.747500       0.274704
                                                         0.238500       0.119802
                                                         0.076980       0.020442

                          4       3    3px               2.613000       0.000000
                                                         0.747500       0.000000
                                                         0.238500       0.000000
                                                         0.076980       0.057798
                          4       3    3py               2.613000       0.000000
                                                         0.747500       0.000000
                                                         0.238500       0.000000
                                                         0.076980       0.057798
                          4       3    3pz               2.613000       0.000000
                                                         0.747500       0.000000
                                                         0.238500       0.000000
                                                         0.076980       0.057798

                          5       1    1s                2.208000       0.441446
                                                         0.587900       0.017636
                                                         0.241500      -0.002344
                                                         0.086100       0.000268

                          5       2    2s                2.208000       0.000000
                                                         0.587900       0.478506
                                                         0.241500       0.000000
                                                         0.086100       0.000000

                          5       3    3s                2.208000      -0.214071
                                                         0.587900       0.057472
                                                         0.241500       0.146329
                                                         0.086100       0.046561

                          5       4    4s                2.208000       0.000000
                                                         0.587900       0.000000
                                                         0.241500       0.000000
                                                         0.086100       0.113282

                          6       1    1fx3              0.163000       0.024853
                          6       1    1fx2y             0.163000       0.055573
                          6       1    1fx2z             0.163000       0.055573
                          6       1    1fxy2             0.163000       0.055573
                          6       1    1fxyz             0.163000       0.096255
                          6       1    1fxz2             0.163000       0.055573
                          6       1    1fy3              0.163000       0.024853
                          6       1    1fy2z             0.163000       0.055573
                          6       1    1fyz2             0.163000       0.055573
                          6       1    1fz3              0.163000       0.024853

                          7       1    1dx2              0.661000       0.797558
                                                         0.199000       0.000000
                          7       1    1dxy              0.661000       1.381410
                                                         0.199000       0.000000
                          7       1    1dxz              0.661000       1.381410
                                                         0.199000       0.000000
                          7       1    1dy2              0.661000       0.797558
                                                         0.199000       0.000000
                          7       1    1dyz              0.661000       1.381410
                                                         0.199000       0.000000
                          7       1    1dz2              0.661000       0.797558
                                                         0.199000       0.000000

                          7       2    2dx2              0.661000       0.000000
                                                         0.199000       0.097589
                          7       2    2dxy              0.661000       0.000000
                                                         0.199000       0.169030
                          7       2    2dxz              0.661000       0.000000
                                                         0.199000       0.169030
                          7       2    2dy2              0.661000       0.000000
                                                         0.199000       0.097589
                          7       2    2dyz              0.661000       0.000000
                                                         0.199000       0.169030
                          7       2    2dz2              0.661000       0.000000
                                                         0.199000       0.097589

                          8       1    1fx3              0.490000       0.295730
                          8       1    1fx2y             0.490000       0.661273
                          8       1    1fx2z             0.490000       0.661273
                          8       1    1fxy2             0.490000       0.661273
                          8       1    1fxyz             0.490000       1.145358
                          8       1    1fxz2             0.490000       0.661273
                          8       1    1fy3              0.490000       0.295730
                          8       1    1fy2z             0.490000       0.661273
                          8       1    1fyz2             0.490000       0.661273
                          8       1    1fz3              0.490000       0.295730

     AE Potential information for                                            ALL

       Description:                                       All-electron potential
                                          Krack, Parrinello, PCCP 2, 2105 (2000)

       Gaussian exponent of the core charge distribution:               2.655410
       Electronic configuration (s p d ...):                           4   1   0

  2. Atomic kind: H                                     Number of atoms:       1

     Orbital Basis Set                                               aug-cc-pVTZ

       Number of orbital shell sets:                                           6
       Number of orbital shells:                                               9
       Number of primitive Cartesian functions:                               11
       Number of Cartesian basis functions:                                   25
       Number of spherical basis functions:                                   23
       Norm type:                                                              2

       Normalised Cartesian orbitals:

                        Set   Shell   Orbital            Exponent    Coefficient

                          1       1    1s                0.025260       0.045158

                          2       1    1px               0.102000       0.082166
                          2       1    1py               0.102000       0.082166
                          2       1    1pz               0.102000       0.082166

                          3       1    1s               33.870000       0.000000
                                                         5.095000       0.000000
                                                         1.159000       0.000000
                                                         0.325800       0.307343
                                                         0.102700       0.000000

                          3       2    2s               33.870000       0.060718
                                                         5.095000       0.109507
                                                         1.159000       0.161468
                                                         0.325800       0.154871
                                                         0.102700       0.049575

                          3       3    3s               33.870000       0.000000
                                                         5.095000       0.000000
                                                         1.159000       0.000000
                                                         0.325800       0.000000
                                                         0.102700       0.129297

                          4       1    1dx2              0.247000       0.142439
                          4       1    1dxy              0.247000       0.246712
                          4       1    1dxz              0.247000       0.246712
                          4       1    1dy2              0.247000       0.142439
                          4       1    1dyz              0.247000       0.246712
                          4       1    1dz2              0.247000       0.142439

                          5       1    1px               1.407000       2.184277
                                                         0.388000       0.000000
                          5       1    1py               1.407000       2.184277
                                                         0.388000       0.000000
                          5       1    1pz               1.407000       2.184277
                                                         0.388000       0.000000

                          5       2    2px               1.407000       0.000000
                                                         0.388000       0.436495
                          5       2    2py               1.407000       0.000000
                                                         0.388000       0.436495
                          5       2    2pz               1.407000       0.000000
                                                         0.388000       0.436495

                          6       1    1dx2              1.057000       1.813597
                          6       1    1dxy              1.057000       3.141241
                          6       1    1dxz              1.057000       3.141241
                          6       1    1dy2              1.057000       1.813597
                          6       1    1dyz              1.057000       3.141241
                          6       1    1dz2              1.057000       1.813597

     RI Auxiliary Basis Set                                    aug-cc-pVTZ-OPTRI

       Number of orbital shell sets:                                           9
       Number of orbital shells:                                               9
       Number of primitive Cartesian functions:                                9
       Number of Cartesian basis functions:                                   34
       Number of spherical basis functions:                                   29
       Norm type:                                                              2

       Normalised Cartesian orbitals:

                        Set   Shell   Orbital            Exponent    Coefficient

                          1       1    1s                0.207674       0.219254

                          2       1    1s                0.488825       0.416654

                          3       1    1dx2              0.617513       0.708011
                          3       1    1dxy              0.617513       1.226311
                          3       1    1dxz              0.617513       1.226311
                          3       1    1dy2              0.617513       0.708011
                          3       1    1dyz              0.617513       1.226311
                          3       1    1dz2              0.617513       0.708011

                          4       1    1px               0.702626       0.916949
                          4       1    1py               0.702626       0.916949
                          4       1    1pz               0.702626       0.916949

                          5       1    1s                1.747055       1.083029

                          6       1    1dx2              1.784914       4.536696
                          6       1    1dxy              1.784914       7.857789
                          6       1    1dxz              1.784914       7.857789
                          6       1    1dy2              1.784914       4.536696
                          6       1    1dyz              1.784914       7.857789
                          6       1    1dz2              1.784914       4.536696

                          7       1    1fx3              1.918725       6.378714
                          7       1    1fx2y             1.918725      14.263237
                          7       1    1fx2z             1.918725      14.263237
                          7       1    1fxy2             1.918725      14.263237
                          7       1    1fxyz             1.918725      24.704651
                          7       1    1fxz2             1.918725      14.263237
                          7       1    1fy3              1.918725       6.378714
                          7       1    1fy2z             1.918725      14.263237
                          7       1    1fyz2             1.918725      14.263237
                          7       1    1fz3              1.918725       6.378714

                          8       1    1px               2.114191       3.633878
                          8       1    1py               2.114191       3.633878
                          8       1    1pz               2.114191       3.633878

                          9       1    1px               4.837096      10.225180
                          9       1    1py               4.837096      10.225180
                          9       1    1pz               4.837096      10.225180

       Atomic covalent radius [Angstrom]:                                  0.320

       Atomic van der Waals radius [Angstrom]:                             1.090

     The atoms of this atomic kind are PAW atoms (GAPW):
       Hard Gaussian function radius:                                      1.200
       Rho0 radius:                                                        1.200
       Maximum GTO radius used for PAW projector construction:            24.566

     GAPW Soft Basis Set                                        aug-cc-pVTZ_soft

       Number of orbital shell sets:                                           6
       Number of orbital shells:                                               9
       Number of primitive Cartesian functions:                               10
       Number of Cartesian basis functions:                                   25
       Number of spherical basis functions:                                   23
       Norm type:                                                              2

       Normalised Cartesian orbitals:

                        Set   Shell   Orbital            Exponent    Coefficient

                          1       1    1s                0.025260       0.045158

                          2       1    1px               0.102000       0.082166
                          2       1    1py               0.102000       0.082166
                          2       1    1pz               0.102000       0.082166

                          3       1    1s                5.095000       0.000000
                                                         1.159000       0.000000
                                                         0.325800       0.307343
                                                         0.102700       0.000000

                          3       2    2s                5.095000       0.109507
                                                         1.159000       0.161468
                                                         0.325800       0.154871
                                                         0.102700       0.049575

                          3       3    3s                5.095000       0.000000
                                                         1.159000       0.000000
                                                         0.325800       0.000000
                                                         0.102700       0.129297

                          4       1    1dx2              0.247000       0.142439
                          4       1    1dxy              0.247000       0.246712
                          4       1    1dxz              0.247000       0.246712
                          4       1    1dy2              0.247000       0.142439
                          4       1    1dyz              0.247000       0.246712
                          4       1    1dz2              0.247000       0.142439

                          5       1    1px               1.407000       2.184277
                                                         0.388000       0.000000
                          5       1    1py               1.407000       2.184277
                                                         0.388000       0.000000
                          5       1    1pz               1.407000       2.184277
                                                         0.388000       0.000000

                          5       2    2px               1.407000       0.000000
                                                         0.388000       0.436495
                          5       2    2py               1.407000       0.000000
                                                         0.388000       0.436495
                          5       2    2pz               1.407000       0.000000
                                                         0.388000       0.436495

                          6       1    1dx2              1.057000       1.813597
                          6       1    1dxy              1.057000       3.141241
                          6       1    1dxz              1.057000       3.141241
                          6       1    1dy2              1.057000       1.813597
                          6       1    1dyz              1.057000       3.141241
                          6       1    1dz2              1.057000       1.813597

     AE Potential information for                                            ALL

       Description:                                       All-electron potential
                                          Krack, Parrinello, PCCP 2, 2105 (2000)

       Gaussian exponent of the core charge distribution:              12.500000
       Electronic configuration (s p d ...):                           1   0   0


 MOLECULE KIND INFORMATION


 All atoms are their own molecule, skipping detailed information


 TOTAL NUMBERS AND MAXIMUM NUMBERS

  Total number of            - Atomic kinds:                                   2
                             - Atoms:                                          2
                             - Shell sets:                                    14
                             - Shells:                                        23
                             - Primitive Cartesian functions:                 33
                             - Cartesian basis functions:                     80
                             - Spherical basis functions:                     69

  Maximum angular momentum of the orbital basis functions:                     3


 MODULE QUICKSTEP: ATOMIC COORDINATES IN ANGSTROM

   Atom Kind Element         X             Y             Z       Z(eff)     Mass
      1    1 B     5     15.616628     15.000000     15.000000   5.0000  10.8110
      2    2 H     1     14.383372     15.000000     15.000000   1.0000   1.0079



 SCF PARAMETERS         Density guess:                                    ATOMIC
                        --------------------------------------------------------
                        max_scf:                                             500
                        max_scf_history:                                       0
                        max_diis:                                              4
                        --------------------------------------------------------
                        eps_scf:                                        1.00E-06
                        eps_scf_history:                                0.00E+00
                        eps_diis:                                       1.00E-01
                        eps_eigval:                                     1.00E-05
                        --------------------------------------------------------
                        level_shift [a.u.]:                             0.000000
                        added MOs                                        66    0
                        --------------------------------------------------------
                        Mixing method:                            BROYDEN_MIXING
                                                charge density mixing in g-space
                        --------------------------------------------------------
                        No outer SCF

 PW_GRID| Information for grid number                                          1
 PW_GRID| Grid distributed over                                    48 processors
 PW_GRID| Real space group dimensions                                    48    1
 PW_GRID| the grid is blocked:                                                NO
 PW_GRID| Cutoff [a.u.]                                                    250.0
 PW_GRID| spherical cutoff:                                                   NO
 PW_GRID|   Bounds   1           -202     202                Points:         405
 PW_GRID|   Bounds   2           -202     202                Points:         405
 PW_GRID|   Bounds   3           -202     202                Points:         405
 PW_GRID| Volume element (a.u.^3)  0.2743E-02     Volume (a.u.^3)    182205.0337
 PW_GRID| Grid span                                                    FULLSPACE
 PW_GRID|   Distribution                         Average         Max         Min
 PW_GRID|   G-Vectors                          1383960.9     1384290     1383885
 PW_GRID|   G-Rays                                3417.2        3418        3417
 PW_GRID|   Real Space Points                  1383960.9     1476225     1312200

 PW_GRID| Information for grid number                                          2
 PW_GRID| Number of the reference grid                                         1
 PW_GRID| Grid distributed over                                    48 processors
 PW_GRID| Real space group dimensions                                    48    1
 PW_GRID| the grid is blocked:                                                NO
 PW_GRID| Cutoff [a.u.]                                                     83.3
 PW_GRID| spherical cutoff:                                                   NO
 PW_GRID|   Bounds   1           -120     119                Points:         240
 PW_GRID|   Bounds   2           -120     119                Points:         240
 PW_GRID|   Bounds   3           -120     119                Points:         240
 PW_GRID| Volume element (a.u.^3)  0.1318E-01     Volume (a.u.^3)    182205.0337
 PW_GRID| Grid span                                                    FULLSPACE
 PW_GRID|   Distribution                         Average         Max         Min
 PW_GRID|   G-Vectors                           288000.0      288720      287520
 PW_GRID|   G-Rays                                1200.0        1203        1198
 PW_GRID|   Real Space Points                   288000.0      288000      288000

 PW_GRID| Information for grid number                                          3
 PW_GRID| Number of the reference grid                                         1
 PW_GRID| Grid distributed over                                    48 processors
 PW_GRID| Real space group dimensions                                    48    1
 PW_GRID| the grid is blocked:                                                NO
 PW_GRID| Cutoff [a.u.]                                                     27.8
 PW_GRID| spherical cutoff:                                                   NO
 PW_GRID|   Bounds   1            -67      67                Points:         135
 PW_GRID|   Bounds   2            -67      67                Points:         135
 PW_GRID|   Bounds   3            -67      67                Points:         135
 PW_GRID| Volume element (a.u.^3)  0.7406E-01     Volume (a.u.^3)    182205.0337
 PW_GRID| Grid span                                                    FULLSPACE
 PW_GRID|   Distribution                         Average         Max         Min
 PW_GRID|   G-Vectors                            51257.8       51570       51030
 PW_GRID|   G-Rays                                 379.7         382         378
 PW_GRID|   Real Space Points                    51257.8       54675       36450

 PW_GRID| Information for grid number                                          4
 PW_GRID| Number of the reference grid                                         1
 PW_GRID| Grid distributed over                                    48 processors
 PW_GRID| Real space group dimensions                                    48    1
 PW_GRID| the grid is blocked:                                                NO
 PW_GRID| Cutoff [a.u.]                                                      9.3
 PW_GRID| spherical cutoff:                                                   NO
 PW_GRID|   Bounds   1            -40      39                Points:          80
 PW_GRID|   Bounds   2            -40      39                Points:          80
 PW_GRID|   Bounds   3            -40      39                Points:          80
 PW_GRID| Volume element (a.u.^3)  0.3559         Volume (a.u.^3)    182205.0337
 PW_GRID| Grid span                                                    FULLSPACE
 PW_GRID|   Distribution                         Average         Max         Min
 PW_GRID|   G-Vectors                            10666.7       10800       10560
 PW_GRID|   G-Rays                                 133.3         135         132
 PW_GRID|   Real Space Points                    10666.7       12800        6400

 POISSON| Solver                                                         WAVELET
 POISSON| Wavelet| Scaling function                                           40
 POISSON| Periodicity                                                       NONE

 RS_GRID| Information for grid number                                          1
 RS_GRID|   Bounds   1           -202     202                Points:         405
 RS_GRID|   Bounds   2           -202     202                Points:         405
 RS_GRID|   Bounds   3           -202     202                Points:         405
 RS_GRID| Real space distribution over                                  3 groups
 RS_GRID| Real space distribution along direction                              1
 RS_GRID| Border size                                                         35
 RS_GRID| Real space distribution over                                  4 groups
 RS_GRID| Real space distribution along direction                              2
 RS_GRID| Border size                                                         35
 RS_GRID| Real space distribution over                                  4 groups
 RS_GRID| Real space distribution along direction                              3
 RS_GRID| Border size                                                         35
 RS_GRID|   Distribution                         Average         Max         Min
 RS_GRID|   Planes                                 205.0         205         205
 RS_GRID|   Distribution                         Average         Max         Min
 RS_GRID|   Planes                                 171.2         172         171
 RS_GRID|   Distribution                         Average         Max         Min
 RS_GRID|   Planes                                 171.2         172         171

 RS_GRID| Information for grid number                                          2
 RS_GRID|   Bounds   1           -120     119                Points:         240
 RS_GRID|   Bounds   2           -120     119                Points:         240
 RS_GRID|   Bounds   3           -120     119                Points:         240
 RS_GRID| Real space distribution over                                  3 groups
 RS_GRID| Real space distribution along direction                              1
 RS_GRID| Border size                                                         37
 RS_GRID| Real space distribution over                                  4 groups
 RS_GRID| Real space distribution along direction                              2
 RS_GRID| Border size                                                         37
 RS_GRID| Real space distribution over                                  4 groups
 RS_GRID| Real space distribution along direction                              3
 RS_GRID| Border size                                                         37
 RS_GRID|   Distribution                         Average         Max         Min
 RS_GRID|   Planes                                 154.0         154         154
 RS_GRID|   Distribution                         Average         Max         Min
 RS_GRID|   Planes                                 134.0         134         134
 RS_GRID|   Distribution                         Average         Max         Min
 RS_GRID|   Planes                                 134.0         134         134

 RS_GRID| Information for grid number                                          3
 RS_GRID|   Bounds   1            -67      67                Points:         135
 RS_GRID|   Bounds   2            -67      67                Points:         135
 RS_GRID|   Bounds   3            -67      67                Points:         135
 RS_GRID| Real space fully replicated
 RS_GRID| Group size                                                           1

 RS_GRID| Information for grid number                                          4
 RS_GRID|   Bounds   1            -40      39                Points:          80
 RS_GRID|   Bounds   2            -40      39                Points:          80
 RS_GRID|   Bounds   3            -40      39                Points:          80
 RS_GRID| Real space fully replicated
 RS_GRID| Group size                                                           1

  HFX_INFO| Replica ID:                                                        1
  HFX_INFO| FRACTION:                                               0.2500000000
  HFX_INFO| Interaction Potential:                                       COULOMB
  HFX_INFO| EPS_SCHWARZ:                                                 1.0E-10
  HFX_INFO| EPS_SCHWARZ_FORCES                                           1.0E-08
  HFX_INFO| EPS_STORAGE_SCALING:                                         1.0E+00
  HFX_INFO| NBINS:                                                            64
  HFX_INFO| BLOCK_SIZE:                                                        1
  HFX_INFO| Number of periodic shells considered:                           NONE
  HFX_INFO| Number of periodic cells considered:                            NONE

 
 RI-RPA| using GPW style
 

 OVERLAP MATRIX CONDITION NUMBER
 1-Norm Condition Number (Estimate)
   CN : |A|*|A^-1|:  9.036E+000 *  4.259E+003   = 3.849E+004  Log(1-CN):  4.5853
 1-Norm and 2-Norm Condition Numbers using Diagonalization
   CN : |A|*|A^-1|:  9.036E+000 *  4.259E+003   = 3.849E+004  Log(1-CN):  4.5853
   CN : max/min ev:  5.905E+000 /  4.693E-004   = 1.258E+004  Log(2-CN):  4.0998

 Number of electrons:                                                          6
 Number of occupied orbitals:                                                  3
 Number of molecular orbitals:                                                69

 Number of orbital functions:                                                 69
 Number of independent orbital functions:                                     69

 Extrapolation method: initial_guess

 Atomic guess: The first density matrix is obtained in terms of atomic orbitals
               and electronic configurations assigned to each atomic kind

 Guess for atomic kind: B

 Electronic structure
    Total number of core electrons                                          0.00
    Total number of valence electrons                                       5.00
    Total number of electrons                                               5.00
    Multiplicity                                                   not specified
    S      2.00  2.00
    P      1.00


 *******************************************************************************
                  Iteration          Convergence                     Energy [au]
 *******************************************************************************
                          1        0.414231E-01                 -24.338802418326
                          2        0.208226E-01                 -24.341013833998
                          3        0.144589E-02                 -24.342166580794
                          4        0.570422E-04                 -24.342171174007
                          5        0.523618E-06                 -24.342171180924

 Energy components [Hartree]           Total Energy ::          -24.342171180924
                                        Band Energy ::          -13.953270957225
                                     Kinetic Energy ::           24.150669622431
                                   Potential Energy ::          -48.492840803354
                                      Virial (-V/T) ::            2.007929451294
                                        Core Energy ::          -32.320703471960
                                          XC Energy ::           -3.524376815134
                                     Coulomb Energy ::           11.502909106171

 Orbital energies  State     L     Occupation   Energy[a.u.]          Energy[eV]

                       1     0          2.000      -6.563491         -178.601683
                       2     0          2.000      -0.344915           -9.385607

                       1     1          1.000      -0.136459           -3.713232


 Total Electron Density at R=0:                                        67.848647

 Guess for atomic kind: H

 Electronic structure
    Total number of core electrons                                          0.00
    Total number of valence electrons                                       1.00
    Total number of electrons                                               1.00
    Multiplicity                                                   not specified
    S      1.00


 *******************************************************************************
                  Iteration          Convergence                     Energy [au]
 *******************************************************************************
                          1        0.899984E-02                  -0.445273676984
                          2        0.831993E-03                  -0.445370735705
                          3        0.104223E-03                  -0.445373223017
                          4        0.123824E-06                  -0.445373248884

 Energy components [Hartree]           Total Energy ::           -0.445373248884
                                        Band Energy ::           -0.233121027105
                                     Kinetic Energy ::            0.424055116706
                                   Potential Energy ::           -0.869428365590
                                      Virial (-V/T) ::            2.050272078646
                                        Core Energy ::           -0.495782636313
                                          XC Energy ::           -0.232278681357
                                     Coulomb Energy ::            0.282688068786

 Orbital energies  State     L     Occupation   Energy[a.u.]          Energy[eV]

                       1     0          1.000      -0.233121           -6.343546


 Total Electron Density at R=0:                                         0.244200
 Re-scaling the density matrix to get the right number of electrons
                  # Electrons              Trace(P)               Scaling factor
                            6                 6.000                        1.000


 SCF WAVEFUNCTION OPTIMIZATION

  Step     Update method      Time    Convergence         Total energy    Change
  ------------------------------------------------------------------------------

  HFX_MEM_INFO| Est. max. program size before HFX [MiB]:                    1328
  HFX_MEM_INFO| Number of cart. primitive ERI's calculated:             36549225
  HFX_MEM_INFO| Number of sph. ERI's calculated:                         9794435
  HFX_MEM_INFO| Number of sph. ERI's stored in-core:                     9794435
  HFX_MEM_INFO| Number of sph. ERI's stored on disk:                           0
  HFX_MEM_INFO| Number of sph. ERI's calculated on the fly:                    0
  HFX_MEM_INFO| Total memory consumption ERI's RAM [MiB]:                     34
  HFX_MEM_INFO| Whereof max-vals [MiB]:                                        2
  HFX_MEM_INFO| Total compression factor ERI's RAM:                         2.22
  HFX_MEM_INFO| Total memory consumption ERI's disk [MiB]:                     0
  HFX_MEM_INFO| Total compression factor ERI's disk:                        0.00
  HFX_MEM_INFO| Size of density/Fock matrix [MiB]:                             0
  HFX_MEM_INFO| Size of buffers [MiB]:                                         0
  HFX_MEM_INFO| Est. max. program size after HFX  [MiB]:                    1846

     1 NoMix/Diag. 0.10E+00    7.1     1.19048527       -25.1687119943 -2.52E+01
     2 Broy./Diag. 0.10E+00    2.6     0.12935020       -25.0106572458  1.58E-01
     3 Broy./Diag. 0.10E+00    2.7     0.18742087       -24.7782551090  2.32E-01
     4 Broy./Diag. 0.10E+00    2.7     0.35496643       -25.0309536205 -2.53E-01
     5 Broy./Diag. 0.10E+00    2.7     0.07667752       -25.0995413636 -6.86E-02
     6 Broy./Diag. 0.10E+00    2.8     0.01174244       -25.1053227358 -5.78E-03
     7 Broy./Diag. 0.10E+00    2.8     0.08092268       -25.1604760498 -5.52E-02
     8 Broy./Diag. 0.10E+00    2.8     0.02907919       -25.2047896352 -4.43E-02
     9 Broy./Diag. 0.10E+00    2.9     0.01405353       -25.2231244471 -1.83E-02
    10 Broy./Diag. 0.10E+00    3.0     0.02836393       -25.2410184094 -1.79E-02
    11 Broy./Diag. 0.10E+00    2.9     0.00833879       -25.2502439181 -9.23E-03
    12 Broy./Diag. 0.10E+00    2.9     0.00562269       -25.2497758963  4.68E-04
    13 Broy./Diag. 0.10E+00    2.9     0.01000363       -25.2441868326  5.59E-03
    14 Broy./Diag. 0.10E+00    2.9     0.00198783       -25.2476640467 -3.48E-03
    15 Broy./Diag. 0.10E+00    3.1     0.01044912       -25.2499818688 -2.32E-03
    16 Broy./Diag. 0.10E+00    2.9     0.01121341       -25.2482847575  1.70E-03
    17 Broy./Diag. 0.10E+00    3.0     0.00281878       -25.2488945977 -6.10E-04
    18 Broy./Diag. 0.10E+00    3.1     0.00423923       -25.2494909607 -5.96E-04
    19 Broy./Diag. 0.10E+00    3.0     0.01310298       -25.2482152228  1.28E-03
    20 Broy./Diag. 0.10E+00    3.0     0.00244533       -25.2487419384 -5.27E-04
    21 Broy./Diag. 0.10E+00    2.9     0.00394990       -25.2484843691  2.58E-04
    22 Broy./Diag. 0.10E+00    2.9     0.00569056       -25.2482316992  2.53E-04
[...]

 U. Borstnik, J. VandeVondele, V. Weber, J. Hutter.
 Parallel Comput. 40, 47-58 (2014).
 Sparse matrix multiplication: The distributed block-compressed sparse row 
 library.
 https://doi.org/10.1016/j.parco.2014.03.012

 M. Del Ben, J. Hutter, J. VandeVondele.
 J. Chem. Theory Comput. 9, 2654-2671 (2013).
 Electron Correlation in the Condensed Phase from a Resolution of Identity 
 Approach Based on the Gaussian and Plane Waves Scheme.
 https://doi.org/10.1021/ct4002202

 M. Del Ben, J. Hutter, J. VandeVondele.
 J. Chem. Theory Comput. 8, 4177-4188 (2012).
 Second-Order Moller-Plesset Perturbation Theory in the Condensed Phase: An 
 Efficient and Massively Parallel Gaussian and Plane Waves Approach.
 https://doi.org/10.1021/ct300531w

 M. Guidon, J. Hutter, J. VandeVondele.
 J. Chem. Theory Comput. 5, 3010-3021 (2009).
 Robust Periodic Hartree-Fock Exchange for Large-Scale Simulations Using 
 Gaussian Basis Sets.
 https://doi.org/10.1021/ct900494g

 M. Guidon, F. Schiffmann, J. Hutter, J. VandeVondele.
 J. Chem. Phys. 128, 214104 (2008).
 Ab initio molecular dynamics using hybrid density functionals.
 https://doi.org/10.1063/1.2931945

 L. Genovese, T. Deutsch, S. Goedecker.
 J. Chem. Phys. 127, 054704 (2007).
 Efficient and accurate three-dimensional Poisson solver for surface problems.
 https://doi.org/10.1063/1.2754685

 J. VandeVondele, J. Hutter.
 J. Chem. Phys. 127, 114105 (2007).
 Gaussian basis sets for accurate calculations on molecular systems in gas and 
 condensed phases.
 https://doi.org/10.1063/1.2770708

 L. Genovese, T. Deutsch, A. Neelov, S. Goedecker, G. Beylkin.
 J. Chem. Phys. 125, 074105 (2006).
 Efficient solution of Poisson's equation with free boundary conditions.
 https://doi.org/10.1063/1.2335442

 M. Frigo, S. G. Johnson.
 Proc. IEEE 93, 216-231 (2005).
 The design and implementation of FFTW3.
 https://doi.org/10.1109/JPROC.2004.840301

 M. Krack, M. Parrinello.
 Phys. Chem. Chem. Phys. 2, 2105-2112 (2000).
 All-electron ab-initio molecular dynamics.
 https://doi.org/10.1039/b001167n

 G. Lippert, J. Hutter, M. Parrinello.
 Theor. Chem. Acc. 103, 124-140 (1999).
 The Gaussian and augmented-plane-wave density functional method for ab initio 
 molecular dynamics simulations.
 https://doi.org/10.1007/s002140050523

 J. P. Perdew, K. Burke, M. Ernzerhof.
 Phys. Rev. Lett. 77, 3865-3868 (1996).
 Generalized gradient approximation made simple.
 https://doi.org/10.1103/PhysRevLett.77.3865


 -------------------------------------------------------------------------------
 -                                                                             -
 -                                T I M I N G                                  -
 -                                                                             -
 -------------------------------------------------------------------------------
 SUBROUTINE                       CALLS  ASD         SELF TIME        TOTAL TIME
                                MAXIMUM       AVERAGE  MAXIMUM  AVERAGE  MAXIMUM
 CP2K                                 1  1.0    0.043    0.068  196.782  196.782
 qs_energies                          1  2.0    0.001    0.001  195.251  195.468
 scf_env_do_scf                       1  3.0    0.000    0.000  191.840  191.841
 scf_env_do_scf_inner_loop           64  4.0    0.002    0.004  191.840  191.841
 qs_ks_build_kohn_sham_matrix        65  7.0    0.010    0.011  146.269  146.280
 qs_ks_update_qs_env                 64  5.0    0.000    0.001  144.846  144.856
 rebuild_ks_matrix                   64  6.0    0.000    0.000  144.839  144.850
 fft_wrap_pw1pw2                   1356  9.9    0.030    0.041   77.726   78.675
 fft_wrap_pw1pw2_250                966 11.1    3.319    3.675   75.181   76.117
 fft3d_ps                          1356 11.9   30.477   33.503   62.717   63.670
 pw_poisson_solve                    65  8.0    1.157    1.262   56.779   56.799
 qs_vxc_create                       65  8.0    0.001    0.001   46.206   46.207
 xc_vxc_pw_create                    64  9.0    0.804    0.914   46.205   46.206
 ps_wavelet_solve                    65  9.0   29.274   33.126   37.594   37.860
 xc_pw_derive                       384 11.0    0.004    0.005   33.839   34.649
 mp_alltoall_d54                     65 10.0    5.480   29.293    5.480   29.293
 mp_alltoall_z22v                  1356 13.9   24.889   28.046   24.889   28.046
 qs_rho_update_rho_low               65  5.0    0.001    0.001   24.251   24.251
 calculate_rho_elec                  65  6.0    0.635    0.678   24.196   24.197
 xc_pw_divergence                    64 10.0    0.002    0.003   23.013   23.699
 xc_rho_set_and_dset_create          64 10.0    0.569    0.699   21.920   23.031
 gspace_mixing                       63  5.0    0.615    0.656   22.453   22.453
 x_to_yz                            709 13.1    5.163    5.717   17.042   17.704
 yz_to_x                            647 12.8    2.166    2.638   15.176   17.624
 density_rs2pw                       65  7.0    0.004    0.005   17.043   17.485
 broyden_mixing                      63  6.0   16.513   16.826   16.811   16.907
 sum_up_and_integrate                65  8.0    0.001    0.001   14.808   14.837
 integrate_v_rspace                  65  9.0    0.002    0.002   14.621   14.728
 potential_pw2rs                     65 10.0    0.033    0.036   12.703   12.805
 prepare_gapw_den                    65  8.0    0.001    0.001   10.052   10.230
 put_rho0_on_grid                    65  9.0    0.638    0.684    9.292    9.469
 transfer_pw2rs                     326 10.6    0.005    0.006    9.234    9.358
 transfer_rs2pw                     326  8.4    0.008    0.010    8.196    8.625
 mp_waitany                        8624 11.5    7.196    7.849    7.196    7.849
 mp_alltoall_d11v                  1184  9.4    4.344    7.328    4.344    7.328
 grid_collocate_task_list            65  7.0    6.233    7.132    6.233    7.132
 hfx_ks_matrix                       65  8.0    0.002    0.003    6.722    6.795
 integrate_four_center               65  9.0    1.387    2.939    6.719    6.791
 transfer_pw2rs_250                 131 10.9    1.909    2.047    6.033    6.275
 transfer_rs2pw_250                 131 10.0    2.135    2.284    5.694    6.089
 xc_functional_eval                 320 10.9    0.001    0.002    4.508    5.402
 pbe_lda_eval                       320 11.9    4.508    5.402    4.508    5.402
 mp_alltoall_d45                     66 10.0    2.641    5.248    2.641    5.248
 pw_scatter_p                       709 12.1    5.087    5.155    5.087    5.155
 pw_gather_p                        647 11.8    4.257    4.886    4.257    4.886
 mp_sync                            755  9.4    2.957    4.403    2.957    4.403
 mp_sum_d                          1808  6.2    3.393    4.360    3.393    4.360
 pw_derive                          579 11.3    3.742    4.008    3.742    4.008
 integrate_vhg0_rspace               65  8.0    0.041    0.048    3.948    3.969
 integrate_four_center_main          65 10.0    0.051    1.763    0.090    3.459
 mp2_main                             1  3.0    0.000    0.000    2.557    2.774
 cp2k_distribution_to_z_slices       65  9.0    1.209    1.278    2.288    2.442
 pw_copy                            970 10.6    2.215    2.349    2.215    2.349
 fft_wrap_pw1pw2_90                 130 10.5    0.096    0.134    2.033    2.328
 pw_poisson_set                      66  8.9    0.002    0.003    2.069    2.089
 rs_gather_matrices                  65 10.0    0.006    0.008    1.786    1.923
 calculate_vxc_atom                  65  8.0    0.023    0.273    1.894    1.895
 grid_integrate_task_list            65 10.0    0.130    1.893    0.130    1.893
 rs_grid_zero                       327 11.1    1.736    1.787    1.736    1.787
 mp_waitall_1                     20002 12.0    1.100    1.739    1.100    1.739
 transfer_pw2rs_90                   65 12.0    0.344    0.396    1.363    1.720
 integrate_four_center_bin         5173 11.0    0.039    1.696    0.039    1.696
 calc_screening_functions             1 10.0    1.032    1.082    1.571    1.618
 pw_axpy                            645  9.3    1.441    1.563    1.441    1.563
 gaVxcgb_GC                         128  9.0    0.032    1.534    0.032    1.534
 transfer_pw2rs_30                   65 12.0    0.883    0.965    1.362    1.500
 pw_copy_to_array                   647 11.8    1.332    1.472    1.332    1.472
 compute_vec_Sigma_x_minus_vxc_       1  4.0    0.000    0.000    1.434    1.434
 transfer_rs2pw_90                   65  9.0    0.304    0.347    1.117    1.255
 pw_integral_ab_c1d_c1d_gs           65  9.0    0.955    0.964    1.076    1.179
 pw_poisson_rebuild                  65  9.0    0.000    0.000    1.127    1.155
 ps_wavelet_create                    1 10.0    0.000    0.000    1.127    1.155
 RS_z_slice_distribution              1 11.0    1.001    1.059    1.127    1.155
 transfer_rs2pw_30                   65  9.0    0.509    0.533    1.044    1.065
 pw_copy_from_array                 709 12.1    0.868    1.059    0.868    1.059
 mp2_gpw_main                         1  4.0    0.000    0.000    0.922    0.932
 mp_sum_dm                          459  7.6    0.512    0.929    0.512    0.929
 powell_optimize                 361572 11.0    0.884    0.919    0.884    0.919
 mp_sendrecv_dv                    6110 10.0    0.761    0.801    0.761    0.801
 rpa_ri_compute_en                    1  5.0    0.000    0.000    0.781    0.781
 rpa_num_int                          1  6.0    0.001    0.001    0.776    0.776
 qs_scf_new_mos                      64  5.0    0.001    0.001    0.727    0.756
 create_qs_kind_set                   1  2.0    0.000    0.000    0.746    0.747
 read_qs_kind                         2  3.0    0.411    0.425    0.746    0.747
 mp_isend_dv                       8076 11.7    0.420    0.726    0.420    0.726
 calculate_rho_atom                 130  9.0    0.285    0.725    0.285    0.725
 pw_zero                            386 10.3    0.622    0.683    0.622    0.683
 mp_irecv_dm3                      2352 11.5    0.348    0.659    0.348    0.659
 init_scf_run                         1  3.0    0.000    0.000    0.620    0.621
 scf_env_initial_rho_setup            1  4.0    0.000    0.000    0.610    0.610
 mp_sum_dv                         3706 11.5    0.509    0.560    0.509    0.560
 calc_pair_dist_radii                 1 10.0    0.181    0.195    0.527    0.540
 compute_GW_self_energy             100  7.0    0.001    0.001    0.527    0.540
 transfer_pw2rs_10                   65 12.0    0.223    0.241    0.472    0.504
 cp_fm_syevd                         70  7.0    0.000    0.001    0.477    0.479
 compute_GW_self_energy_deep        100  8.0    0.335    0.348    0.455    0.468
 eigensolver_symm                    65  6.0    0.002    0.002    0.460    0.461
 qs_init_subsys                       1  2.0    0.004    0.004    0.458    0.459
 mp_isendrecv_dv                  12220 12.0    0.226    0.452    0.226    0.452
 qs_env_setup                         1  3.0    0.000    0.000    0.446    0.447
 qs_env_rebuild_pw_env                2  3.5    0.000    0.000    0.445    0.446
 pw_env_rebuild                       1  5.0    0.001    0.001    0.444    0.445
 Vh_1c_gg_integrals                  65  8.0    0.007    0.141    0.301    0.436
 cp_fm_redistribute_end              70  8.0    0.229    0.420    0.230    0.422
 pw_grid_setup                        4  6.0    0.000    0.000    0.420    0.421
 pw_grid_setup_internal               4  7.0    0.010    0.013    0.420    0.421
 mp_isend_dm3                      2352 11.5    0.242    0.416    0.242    0.416
 fft_wrap_pw1pw2_30                 130 10.5    0.016    0.017    0.384    0.399
 mp_sum_i                            19  9.5    0.218    0.391    0.218    0.391
 restraint_control                    1  2.0    0.000    0.000    0.217    0.390
 mp2_main_alloc_hfx                   1  4.0    0.173    0.390    0.173    0.390
 cp_fm_syevd_base                    70  8.0    0.190    0.381    0.190    0.381
 mp_max_i                           576  2.8    0.228    0.360    0.228    0.360
 transfer_rs2pw_10                   65  9.0    0.106    0.114    0.332    0.348
 scale_and_distribute               130 10.0    0.325    0.347    0.325    0.347
 parser_read_line                 88114  4.0    0.030    0.033    0.335    0.339
 pw_grid_sort                         4  8.0    0.223    0.228    0.318    0.324
 parser_read_line_low                98  5.0    0.023    0.142    0.305    0.310
 broadcast_input_information         98  6.0    0.067    0.077    0.282    0.292
 pw_scale                           257  9.5    0.171    0.231    0.171    0.231
 parallel_gemm_fm                   348  8.5    0.000    0.000    0.185    0.190
 parallel_gemm_fm_gemm              348  9.5    0.000    0.001    0.185    0.190
 cp_fm_gemm                         348 10.5    0.184    0.189    0.184    0.189
 calculate_dm_sparse                 64  6.0    0.000    0.000    0.173    0.177
 cp_dbcsr_plus_fm_fm_t               64  7.0    0.001    0.001    0.173    0.176
 rpa_num_int_RPA_matrix_operati     100  7.0    0.001    0.002    0.152    0.153
 mixing_init                          1  5.0    0.146    0.149    0.149    0.150
 copy_dbcsr_to_fm                    87  6.4    0.002    0.002    0.113    0.143
 mp_bcast_i_src                     392  7.0    0.106    0.133    0.106    0.133
 dbcsr_complete_redistribute        219  8.4    0.009    0.013    0.123    0.125
 mp2_ri_gpw_compute_in                1  5.0    0.000    0.000    0.125    0.125
 mp_bcast_am_src                     98  7.0    0.090    0.105    0.105    0.123
 dbcsr_multiply_generic              93  8.1    0.004    0.004    0.118    0.122
 mp2_ri_gpw_compute_in_loop           1  6.0    0.000    0.000    0.120    0.121
 qs_energies_init_hamiltonians        1  3.0    0.000    0.000    0.117    0.117
 fft_wrap_pw1pw2_10                 130 10.5    0.003    0.004    0.097    0.116
 scf_post_calculation_gpw             1  3.0    0.000    0.000    0.115    0.115
 write_available_results              1  4.0    0.000    0.000    0.115    0.115
 write_mo_free_results                1  5.0    0.013    0.014    0.115    0.115
 build_core_hamiltonian_matrix        1  4.0    0.000    0.000    0.112    0.112
 overlap_condnum                      1  5.0    0.000    0.000    0.110    0.110
 contract_B_L                         4  7.0    0.001    0.001    0.102    0.108
 integrate_four_center_getP          65 10.0    0.005    0.006    0.098    0.105
 calc_mat_Q                         100  8.0    0.000    0.000    0.097    0.100
 mp_sum_l                           885  5.9    0.074    0.100    0.074    0.100
 contract_S_to_Q                    100  9.0    0.000    0.000    0.096    0.099
 xc_pw_smooth                        64 10.0    0.000    0.000    0.068    0.097
 integrate_four_center_dist_KS       65 10.0    0.006    0.007    0.095    0.096
 sort_shells                          4  9.0    0.095    0.096    0.095    0.096
 dbcsr_desymmetrize_deep             89  7.4    0.002    0.003    0.060    0.089
 cp_fm_to_fm_submat_general         112 10.1    0.077    0.081    0.077    0.081
 vxc_of_r_new                       256  9.0    0.000    0.012    0.002    0.078
 arnoldi_conjugate_gradient           5  6.0    0.002    0.003    0.078    0.078
 start_bse_calculation                1  7.0    0.000    0.000    0.078    0.078
 integrate_four_center_load          65 10.0    0.000    0.001    0.054    0.078
 hfx_load_balance                     1 11.0    0.000    0.000    0.054    0.077
 hfx_load_balance_range               1 12.0    0.000    0.001    0.050    0.073
 copy_fm_to_dbcsr                   132  8.1    0.001    0.001    0.069    0.071
 mp_irecv_dv                       8112 11.7    0.035    0.071    0.035    0.071
 dbt_total                            8  8.0    0.000    0.000    0.068    0.068
 cp_fm_cholesky_invert              101  8.0    0.061    0.065    0.061    0.065
 dbt_contract                         4  9.0    0.001    0.001    0.064    0.064
 cp_fm_redistribute_start            70  8.0    0.044    0.046    0.056    0.061
 update_ks_atom                      65  8.0    0.003    0.011    0.043    0.060
 make_m2s                           186  9.1    0.003    0.003    0.056    0.058
 mp_alltoall_i22                    308  9.1    0.029    0.057    0.029    0.057
 mp_bcast_dm                        260  9.0    0.040    0.057    0.040    0.057
 pw_grid_assign                       4  8.0    0.051    0.053    0.053    0.054
 calculate_rho_atom_coeff            65  6.0    0.005    0.016    0.054    0.054
 calculate_hirshfeld_normalizat       1  6.0    0.000    0.001    0.050    0.051
 hirshfeld_integration                1  6.0    0.000    0.001    0.050    0.051
 offload_free_buffer                 73  8.3    0.034    0.051    0.034    0.051
 mp_cart_create                     361 10.4    0.041    0.049    0.042    0.049
 compute_Erpa_by_freq_int           100  8.0    0.001    0.001    0.049    0.049
 dbt_tas_multiply                     8 11.5    0.000    0.000    0.048    0.048
 dbt_tas_total                        8 12.5    0.001    0.001    0.048    0.048
 dbcsr_sym_matrix_vector_mult       302  7.0    0.005    0.005    0.033    0.047
 cp_fm_cholesky_decompose           102  9.0    0.046    0.047    0.046    0.047
 diagonalize_C                        1  8.0    0.000    0.000    0.046    0.046
 mp_alltoall_i11v                   746  9.3    0.043    0.043    0.043    0.043
 multiply_cannon                     93  9.1    0.007    0.007    0.039    0.042
 mp_maxloc_dv                      1519  1.0    0.036    0.038    0.036    0.038
 dbcsr_finalize                    1689 10.7    0.006    0.011    0.020    0.037
 cp_fm_power                          2  7.5    0.000    0.001    0.036    0.036
 calculate_rho0_atom                130  9.0    0.032    0.033    0.032    0.033
 dbt_pgrid_create_expert             80 10.7    0.000    0.000    0.024    0.031
 mp_comm_split_direct                48 14.5    0.020    0.030    0.020    0.030
 dbcsr_add_d                        505  7.2    0.001    0.001    0.004    0.030
 dbcsr_add_anytype                  505  8.2    0.001    0.004    0.003    0.029
 hybrid_alltoall_any                275 10.9    0.002    0.003    0.027    0.028
 make_images                        186 10.1    0.005    0.006    0.026    0.028
 postprocess_bse                      1  9.0    0.000    0.000    0.026    0.026
 multiply_cannon_loop                93 10.1    0.005    0.006    0.023    0.026
 mp_bcast_iv                        149  5.9    0.015    0.025    0.015    0.025
 mp2_main_free_hfx                    1  4.0    0.010    0.024    0.010    0.024
 pw_grid_remap                        4  8.0    0.008    0.008    0.019    0.024
 mp2_eri_3c_integrate                 1  7.0    0.000    0.001    0.008    0.022
 integrate_set_3c                   296  8.0    0.007    0.019    0.008    0.022
 rs_scatter_matrices                 65  7.0    0.000    0.001    0.021    0.021
 create_hermitian_form_of_ABBA        1  8.0    0.000    0.000    0.020    0.020
 dbt_distribution_new_expert         72 10.0    0.001    0.001    0.019    0.020
 -------------------------------------------------------------------------------

 The number of warnings for this run is : 1
 
 -------------------------------------------------------------------------------
  **** **** ******  **  PROGRAM ENDED AT                 2025-03-19 01:27:03.351
 ***** ** ***  *** **   PROGRAM RAN ON                              i03r08c03s06
 **    ****   ******    PROGRAM RAN BY                                   di38fab
 ***** **    ** ** **   PROGRAM PROCESS ID                               3485321
  **** **  *******  **  PROGRAM STOPPED IN /hppfs/scratch/04/di38fab/05_MOL/W4-1
                                           1+ALK/bh/aug-cc-pVTZ/GW+BSE
