 DBCSR| CPU Multiplication driver                                           BLAS (U)
 DBCSR| Multrec recursion limit                                              512 (U)
 DBCSR| Multiplication stack size                                           1000 (D)
 DBCSR| Maximum elements for images                                    UNLIMITED (U)
 DBCSR| Multiplicative factor virtual images                                   1 (U)
 DBCSR| Use multiplication densification                                       T (D)
 DBCSR| Multiplication size stacks                                             3 (U)
 DBCSR| Use memory pool for CPU allocation                                     F (U)
 DBCSR| Number of 3D layers                                               SINGLE (U)
 DBCSR| Use MPI memory allocation                                              F (U)
 DBCSR| Use RMA algorithm                                                      F (U)
 DBCSR| Use Communication thread                                               T (U)
 DBCSR| Communication thread load                                             75 (D)
 DBCSR| MPI: My process id                                                     0
 DBCSR| MPI: Number of processes                                              24
 DBCSR| OMP: Current number of threads                                         4
 DBCSR| OMP: Max number of threads                                             4
 DBCSR| Split modifier for TAS multiplication algorithm                  1.0E+00 (U)


  **** **** ******  **  PROGRAM STARTED AT               2025-03-03 00:18:10.689
 ***** ** ***  *** **   PROGRAM STARTED ON                          i02r02c03s11
 **    ****   ******    PROGRAM STARTED BY                               di38fab
 ***** **    ** ** **   PROGRAM PROCESS ID                                615398
  **** **  *******  **  PROGRAM STARTED IN /hppfs/scratch/04/di38fab/05_MOL/W4-1
                                           1+ALK/c2/TZVP

 CP2K| version string:                 CP2K version 2025.1 (Development Version)
 CP2K| source code revision number:                                  git:47877ba
 CP2K| cp2kflags: omp libint fftw3 libxc parallel scalapack max_contr=4         
 CP2K| is freely available from                            https://www.cp2k.org/
 CP2K| Program compiled at                          Thu Feb 20 16:00:34 CET 2025
 CP2K| Program compiled on                                               login04
 CP2K| Program compiled for                                        Supermuc-foss
 CP2K| Data directory path          /hppfs/work/pn36zo/di38fab/newcp2k/cp2k/data
 CP2K| Input file name                                                    GW.inp

 GLOBAL| Force Environment number                                              1
 GLOBAL| Basis set file name            /hppfs/scratch/04/di38fab/04_TMD/BASIS_A
 GLOBAL| Potential file name            /hppfs/work/pn36zo/di38fab/cp2k/data/ALL
 GLOBAL| MM Potential file name                                     MM_POTENTIAL
 GLOBAL| Coordinate file name                                      __STD_INPUT__
 GLOBAL| Method name                                                        CP2K
 GLOBAL| Project name                                                       MoS2
 GLOBAL| Run type                                                         ENERGY
 GLOBAL| FFT library                                                       FFTW3
 GLOBAL| Diagonalization library                                       ScaLAPACK
 GLOBAL| DGEMM library                                                      BLAS
 GLOBAL| Orthonormality check for eigenvectors                          DISABLED
 GLOBAL| Matrix multiplication library                                 ScaLAPACK
 GLOBAL| All-to-all communication in single precision                          F
 GLOBAL| FFTs using library dependent lengths                                  F
 GLOBAL| Grid backend                                                       AUTO
 GLOBAL| Global print level                                               MEDIUM
 GLOBAL| MPI I/O enabled                                                       T
 GLOBAL| Total number of message passing processes                            24
 GLOBAL| Number of threads for this process                                    4
 GLOBAL| This output is from process                                           0
 GLOBAL| OpenMP stack size per thread (OMP_STACKSIZE)                    default
 GLOBAL| CPU model name             Intel(R) Xeon(R) Platinum 8174 CPU @ 3.10GHz

 MEMORY| system memory details [Kb]
 MEMORY|                        rank 0           min           max       average
 MEMORY| MemTotal             98436664      98436660      98436664      98436662
 MEMORY| MemFree              84142468      84075672      84142468      84109070
 MEMORY| Buffers                     0             0             0             0
 MEMORY| Cached                2432456       2432456       2434024       2433240
 MEMORY| Slab                  1221544       1221544       1225928       1223736
 MEMORY| SReclaimable           265888        260116        265888        263002
 MEMORY| MemLikelyFree        86840812      86769812      86840812      86805312


 *** Fundamental physical constants (SI units) ***

 *** Literature: B. J. Mohr and B. N. Taylor,
 ***             CODATA recommended values of the fundamental physical
 ***             constants: 2006, Web Version 5.1
 ***             http://physics.nist.gov/constants

 Speed of light in vacuum [m/s]                             2.99792458000000E+08
 Magnetic constant or permeability of vacuum [N/A**2]       1.25663706143592E-06
 Electric constant or permittivity of vacuum [F/m]          8.85418781762039E-12
 Planck constant (h) [J*s]                                  6.62606896000000E-34
 Planck constant (h-bar) [J*s]                              1.05457162825177E-34
 Elementary charge [C]                                      1.60217648700000E-19
 Electron mass [kg]                                         9.10938215000000E-31
 Electron g factor [ ]                                     -2.00231930436220E+00
 Proton mass [kg]                                           1.67262163700000E-27
 Fine-structure constant                                    7.29735253760000E-03
 Rydberg constant [1/m]                                     1.09737315685270E+07
 Avogadro constant [1/mol]                                  6.02214179000000E+23
 Boltzmann constant [J/K]                                   1.38065040000000E-23
 Atomic mass unit [kg]                                      1.66053878200000E-27
 Bohr radius [m]                                            5.29177208590000E-11

 *** Conversion factors ***

 [u] -> [a.u.]                                              1.82288848426455E+03
 [Angstrom] -> [Bohr] = [a.u.]                              1.88972613288564E+00
 [a.u.] = [Bohr] -> [Angstrom]                              5.29177208590000E-01
 [a.u.] -> [s]                                              2.41888432650478E-17
 [a.u.] -> [fs]                                             2.41888432650478E-02
 [a.u.] -> [J]                                              4.35974393937059E-18
 [a.u.] -> [N]                                              8.23872205491840E-08
 [a.u.] -> [K]                                              3.15774647902944E+05
 [a.u.] -> [kJ/mol]                                         2.62549961709828E+03
 [a.u.] -> [kcal/mol]                                       6.27509468713739E+02
 [a.u.] -> [Pa]                                             2.94210107994716E+13
 [a.u.] -> [bar]                                            2.94210107994716E+08
 [a.u.] -> [atm]                                            2.90362800883016E+08
 [a.u.] -> [eV]                                             2.72113838565563E+01
 [a.u.] -> [Hz]                                             6.57968392072181E+15
 [a.u.] -> [1/cm] (wave numbers)                            2.19474631370540E+05
 [a.u./Bohr**2] -> [1/cm]                                   5.14048714338585E+03
 

 CELL_TOP| Volume [angstrom^3]:                                     27000.000000
 CELL_TOP| Vector a [angstrom    30.000     0.000     0.000   |a| =    30.000000
 CELL_TOP| Vector b [angstrom     0.000    30.000     0.000   |b| =    30.000000
 CELL_TOP| Vector c [angstrom     0.000     0.000    30.000   |c| =    30.000000
 CELL_TOP| Angle (b,c), alpha [degree]:                                90.000000
 CELL_TOP| Angle (a,c), beta  [degree]:                                90.000000
 CELL_TOP| Angle (a,b), gamma [degree]:                                90.000000
 CELL_TOP| Numerically orthorhombic:                                         YES
 CELL_TOP| Periodicity                                                      NONE

 GENERATE|  Preliminary Number of Bonds generated:                             0
 GENERATE|  Achieved consistency in connectivity generation.

 CELL| Volume [angstrom^3]:                                         27000.000000
 CELL| Vector a [angstrom]:      30.000     0.000     0.000   |a| =    30.000000
 CELL| Vector b [angstrom]:       0.000    30.000     0.000   |b| =    30.000000
 CELL| Vector c [angstrom]:       0.000     0.000    30.000   |c| =    30.000000
 CELL| Angle (b,c), alpha [degree]:                                    90.000000
 CELL| Angle (a,c), beta  [degree]:                                    90.000000
 CELL| Angle (a,b), gamma [degree]:                                    90.000000
 CELL| Numerically orthorhombic:                                             YES
 CELL| Periodicity                                                          NONE

 CELL_REF| Volume [angstrom^3]:                                     27000.000000
 CELL_REF| Vector a [angstrom    30.000     0.000     0.000   |a| =    30.000000
 CELL_REF| Vector b [angstrom     0.000    30.000     0.000   |b| =    30.000000
 CELL_REF| Vector c [angstrom     0.000     0.000    30.000   |c| =    30.000000
 CELL_REF| Angle (b,c), alpha [degree]:                                90.000000
 CELL_REF| Angle (a,c), beta  [degree]:                                90.000000
 CELL_REF| Angle (a,b), gamma [degree]:                                90.000000
 CELL_REF| Numerically orthorhombic:                                         YES
 CELL_REF| Periodicity                                                      NONE

 *******************************************************************************
 *******************************************************************************
 **                                                                           **
 **     #####                         ##              ##                      **
 **    ##   ##            ##          ##              ##                      **
 **   ##     ##                       ##            ######                    **
 **   ##     ##  ##   ##  ##   #####  ##  ##   ####   ##    #####    #####    **
 **   ##     ##  ##   ##  ##  ##      ## ##   ##      ##   ##   ##  ##   ##   **
 **   ##  ## ##  ##   ##  ##  ##      ####     ###    ##   ######   ######    **
 **    ##  ###   ##   ##  ##  ##      ## ##      ##   ##   ##       ##        **
 **     #######   #####   ##   #####  ##  ##  ####    ##    #####   ##        **
 **           ##                                                    ##        **
 **                                                                           **
 **                                                ... make the atoms dance   **
 **                                                                           **
 **            Copyright (C) by CP2K developers group (2000-2025)             **
 **                      J. Chem. Phys. 152, 194103 (2020)                    **
 **                                                                           **
 *******************************************************************************

 DFT| Spin restricted Kohn-Sham (RKS) calculation                            RKS
 DFT| Multiplicity                                                             1
 DFT| Number of spin states                                                    1
 DFT| Charge                                                                   0
 DFT| Self-interaction correction (SIC)                                       NO
 DFT| Cutoffs: density                                              1.000000E-10
 DFT|          gradient                                             1.000000E-10
 DFT|          tau                                                  1.000000E-10
 DFT|          cutoff_smoothing_range                               0.000000E+00
 DFT| XC density smoothing                                                  NONE
 DFT| XC derivatives                                                          PW

 FUNCTIONAL| PBE:
 FUNCTIONAL| J.P.Perdew, K.Burke, M.Ernzerhof, Phys. Rev. Letter, vol. 77, n 18,
 FUNCTIONAL|  pp. 3865-3868, (1996)sx=0.750sc=1.000{spin unpolarized}           


 QS| Method:                                                                GAPW
 QS| Density plane wave grid type                        NON-SPHERICAL FULLSPACE
 QS| Number of grid levels:                                                    4
 QS| Density cutoff [a.u.]:                                                250.0
 QS| Multi grid cutoff [a.u.]: 1) grid level                               250.0
 QS|                           2) grid level                                83.3
 QS|                           3) grid level                                27.8
 QS|                           4) grid level                                 9.3
 QS| Grid level progression factor:                                          3.0
 QS| Relative density cutoff [a.u.]:                                        50.0
 QS| Interaction thresholds: eps_pgf_orb:                                1.0E-12
 QS|                         eps_filter_matrix:                          0.0E+00
 QS|                         eps_core_charge:                            1.0E-14
 QS|                         eps_rho_gspace:                             1.0E-12
 QS|                         eps_rho_rspace:                             1.0E-12
 QS|                         eps_gvg_rspace:                             1.0E-06
 QS|                         eps_ppl:                                    1.0E-02
 QS|                         eps_ppnl:                                   1.0E-08
 QS| GAPW|      One center basis from orbital basis primitives
 QS| GAPW|                   eps_fit:                                    1.0E-04
 QS| GAPW|                   eps_iso:                                    1.0E-12
 QS| GAPW|                   eps_svd:                                    1.0E-08
 QS| GAPW|                   eps_cpc:                                    1.0E-12
 QS| GAPW|   atom-r-grid: quadrature:                                     GC_LOG
 QS| GAPW|      atom-s-grid:  max l :                                          8
 QS| GAPW|      max_l_rho0 :                                                   2


 ATOMIC KIND INFORMATION

  1. Atomic kind: C                                     Number of atoms:       2

     Orbital Basis Set                                        aug-TZVP-MOLOPT-ae

       Number of orbital shell sets:                                           2
       Number of orbital shells:                                              16
       Number of primitive Cartesian functions:                               13
       Number of Cartesian basis functions:                                   71
       Number of spherical basis functions:                                   56
       Norm type:                                                              2

       Normalised Cartesian orbitals:

                        Set   Shell   Orbital            Exponent    Coefficient

                          1       1    1s                0.040000       0.000000
                                                         0.097098       0.019281
                                                         0.283960       0.027513
                                                         0.806764       0.003692
                                                         2.441624       0.446183
                                                         6.739673       1.752510
                                                        34.417212       0.637474

                          1       2    2s                0.040000       0.000000
                                                         0.097098       0.029117
                                                         0.283960       0.094997
                                                         0.806764       0.362633
                                                         2.441624      -0.104551
                                                         6.739673      -0.288836
                                                        34.417212       1.102934

                          1       3    3s                0.040000       0.000000
                                                         0.097098       0.047046
                                                         0.283960       0.169545
                                                         0.806764      -0.252838
                                                         2.441624      -0.199197
                                                         6.739673      -0.168746
                                                        34.417212      -6.120053

                          1       4    4s                0.040000       0.000000
                                                         0.097098       0.188374
                                                         0.283960      -0.341415
                                                         0.806764       0.091223
                                                         2.441624      -0.053941
                                                         6.739673      -0.401007
                                                        34.417212      -3.786931

                          1       5    5s                0.040000       0.099533
                                                         0.097098      -0.167672
                                                         0.283960      -0.126383
                                                         0.806764       0.030074
                                                         2.441624       0.000000
                                                         6.739673       0.000000
                                                        34.417212       0.000000

                          1       6    2px               0.040000       0.000000
                                                         0.097098       0.005087
                                                         0.283960       0.032186
                                                         0.806764       0.779023
                                                         2.441624       0.695625
                                                         6.739673       2.243109
                                                        34.417212       2.016536
                          1       6    2py               0.040000       0.000000
                                                         0.097098       0.005087
                                                         0.283960       0.032186
                                                         0.806764       0.779023
                                                         2.441624       0.695625
                                                         6.739673       2.243109
                                                        34.417212       2.016536
                          1       6    2pz               0.040000       0.000000
                                                         0.097098       0.005087
                                                         0.283960       0.032186
                                                         0.806764       0.779023
                                                         2.441624       0.695625
                                                         6.739673       2.243109
                                                        34.417212       2.016536

                          1       7    3px               0.040000       0.000000
                                                         0.097098       0.008084
                                                         0.283960       0.294367
                                                         0.806764      -0.188640
                                                         2.441624       0.912249
                                                         6.739673      -2.720242
                                                        34.417212       1.690366
                          1       7    3py               0.040000       0.000000
                                                         0.097098       0.008084
                                                         0.283960       0.294367
                                                         0.806764      -0.188640
                                                         2.441624       0.912249
                                                         6.739673      -2.720242
                                                        34.417212       1.690366
                          1       7    3pz               0.040000       0.000000
                                                         0.097098       0.008084
                                                         0.283960       0.294367
                                                         0.806764      -0.188640
                                                         2.441624       0.912249
                                                         6.739673      -2.720242
                                                        34.417212       1.690366

                          1       8    4px               0.040000       0.000000
                                                         0.097098       0.081068
                                                         0.283960      -0.017243
                                                         0.806764      -0.070055
                                                         2.441624      -0.855991
                                                         6.739673       1.761645
                                                        34.417212     -12.705833
                          1       8    4py               0.040000       0.000000
                                                         0.097098       0.081068
                                                         0.283960      -0.017243
                                                         0.806764      -0.070055
                                                         2.441624      -0.855991
                                                         6.739673       1.761645
                                                        34.417212     -12.705833
                          1       8    4pz               0.040000       0.000000
                                                         0.097098       0.081068
                                                         0.283960      -0.017243
                                                         0.806764      -0.070055
                                                         2.441624      -0.855991
                                                         6.739673       1.761645
                                                        34.417212     -12.705833

                          1       9    5px               0.040000       0.032085
                                                         0.097098      -0.027366
                                                         0.283960      -0.100343
                                                         0.806764      -0.020266
                                                         2.441624       0.000000
                                                         6.739673       0.000000
                                                        34.417212       0.000000
                          1       9    5py               0.040000       0.032085
                                                         0.097098      -0.027366
                                                         0.283960      -0.100343
                                                         0.806764      -0.020266
                                                         2.441624       0.000000
                                                         6.739673       0.000000
                                                        34.417212       0.000000
                          1       9    5pz               0.040000       0.032085
                                                         0.097098      -0.027366
                                                         0.283960      -0.100343
                                                         0.806764      -0.020266
                                                         2.441624       0.000000
                                                         6.739673       0.000000
                                                        34.417212       0.000000

                          1      10    3dx2              0.040000       0.000000
                                                         0.097098       0.001415
                                                         0.283960       0.015501
                                                         0.806764       0.546922
                                                         2.441624       3.763414
                                                         6.739673       4.248634
                                                        34.417212     174.894573
                          1      10    3dxy              0.040000       0.000000
                                                         0.097098       0.002451
                                                         0.283960       0.026849
                                                         0.806764       0.947296
                                                         2.441624       6.518424
                                                         6.739673       7.358850
                                                        34.417212     302.926287
                          1      10    3dxz              0.040000       0.000000
                                                         0.097098       0.002451
                                                         0.283960       0.026849
                                                         0.806764       0.947296
                                                         2.441624       6.518424
                                                         6.739673       7.358850
                                                        34.417212     302.926287
                          1      10    3dy2              0.040000       0.000000
                                                         0.097098       0.001415
                                                         0.283960       0.015501
                                                         0.806764       0.546922
                                                         2.441624       3.763414
                                                         6.739673       4.248634
                                                        34.417212     174.894573
                          1      10    3dyz              0.040000       0.000000
                                                         0.097098       0.002451
                                                         0.283960       0.026849
                                                         0.806764       0.947296
                                                         2.441624       6.518424
                                                         6.739673       7.358850
                                                        34.417212     302.926287
                          1      10    3dz2              0.040000       0.000000
                                                         0.097098       0.001415
                                                         0.283960       0.015501
                                                         0.806764       0.546922
                                                         2.441624       3.763414
                                                         6.739673       4.248634
                                                        34.417212     174.894573

                          1      11    4dx2              0.040000       0.000000
                                                         0.097098       0.001225
                                                         0.283960       0.139703
                                                         0.806764       0.323683
                                                         2.441624      -2.510108
                                                         6.739673      -4.401044
                                                        34.417212    -164.169372
                          1      11    4dxy              0.040000       0.000000
                                                         0.097098       0.002122
                                                         0.283960       0.241972
                                                         0.806764       0.560636
                                                         2.441624      -4.347634
                                                         6.739673      -7.622831
                                                        34.417212    -284.349694
                          1      11    4dxz              0.040000       0.000000
                                                         0.097098       0.002122
                                                         0.283960       0.241972
                                                         0.806764       0.560636
                                                         2.441624      -4.347634
                                                         6.739673      -7.622831
                                                        34.417212    -284.349694
                          1      11    4dy2              0.040000       0.000000
                                                         0.097098       0.001225
                                                         0.283960       0.139703
                                                         0.806764       0.323683
                                                         2.441624      -2.510108
                                                         6.739673      -4.401044
                                                        34.417212    -164.169372
                          1      11    4dyz              0.040000       0.000000
                                                         0.097098       0.002122
                                                         0.283960       0.241972
                                                         0.806764       0.560636
                                                         2.441624      -4.347634
                                                         6.739673      -7.622831
                                                        34.417212    -284.349694
                          1      11    4dz2              0.040000       0.000000
                                                         0.097098       0.001225
                                                         0.283960       0.139703
                                                         0.806764       0.323683
                                                         2.441624      -2.510108
                                                         6.739673      -4.401044
                                                        34.417212    -164.169372

                          1      12    5dx2              0.040000       0.006049
                                                         0.097098      -0.003128
                                                         0.283960       0.033814
                                                         0.806764       0.003338
                                                         2.441624       0.000000
                                                         6.739673       0.000000
                                                        34.417212       0.000000
                          1      12    5dxy              0.040000       0.010477
                                                         0.097098      -0.005418
                                                         0.283960       0.058567
                                                         0.806764       0.005781
                                                         2.441624       0.000000
                                                         6.739673       0.000000
                                                        34.417212       0.000000
                          1      12    5dxz              0.040000       0.010477
                                                         0.097098      -0.005418
                                                         0.283960       0.058567
                                                         0.806764       0.005781
                                                         2.441624       0.000000
                                                         6.739673       0.000000
                                                        34.417212       0.000000
                          1      12    5dy2              0.040000       0.006049
                                                         0.097098      -0.003128
                                                         0.283960       0.033814
                                                         0.806764       0.003338
                                                         2.441624       0.000000
                                                         6.739673       0.000000
                                                        34.417212       0.000000
                          1      12    5dyz              0.040000       0.010477
                                                         0.097098      -0.005418
                                                         0.283960       0.058567
                                                         0.806764       0.005781
                                                         2.441624       0.000000
                                                         6.739673       0.000000
                                                        34.417212       0.000000
                          1      12    5dz2              0.040000       0.006049
                                                         0.097098      -0.003128
                                                         0.283960       0.033814
                                                         0.806764       0.003338
                                                         2.441624       0.000000
                                                         6.739673       0.000000
                                                        34.417212       0.000000

                          1      13    4fx3              0.040000       0.000000
                                                         0.097098      -0.000799
                                                         0.283960       0.042127
                                                         0.806764       0.576468
                                                         2.441624       1.033755
                                                         6.739673      -2.026957
                                                        34.417212      49.427593
                          1      13    4fx2y             0.040000       0.000000
                                                         0.097098      -0.001786
                                                         0.283960       0.094199
                                                         0.806764       1.289022
                                                         2.441624       2.311546
                                                         6.739673      -4.532415
                                                        34.417212     110.523457
                          1      13    4fx2z             0.040000       0.000000
                                                         0.097098      -0.001786
                                                         0.283960       0.094199
                                                         0.806764       1.289022
                                                         2.441624       2.311546
                                                         6.739673      -4.532415
                                                        34.417212     110.523457
                          1      13    4fxy2             0.040000       0.000000
                                                         0.097098      -0.001786
                                                         0.283960       0.094199
                                                         0.806764       1.289022
                                                         2.441624       2.311546
                                                         6.739673      -4.532415
                                                        34.417212     110.523457
                          1      13    4fxyz             0.040000       0.000000
                                                         0.097098      -0.003093
                                                         0.283960       0.163158
                                                         0.806764       2.232651
                                                         2.441624       4.003716
                                                         6.739673      -7.850372
                                                        34.417212     191.432243
                          1      13    4fxz2             0.040000       0.000000
                                                         0.097098      -0.001786
                                                         0.283960       0.094199
                                                         0.806764       1.289022
                                                         2.441624       2.311546
                                                         6.739673      -4.532415
                                                        34.417212     110.523457
                          1      13    4fy3              0.040000       0.000000
                                                         0.097098      -0.000799
                                                         0.283960       0.042127
                                                         0.806764       0.576468
                                                         2.441624       1.033755
                                                         6.739673      -2.026957
                                                        34.417212      49.427593
                          1      13    4fy2z             0.040000       0.000000
                                                         0.097098      -0.001786
                                                         0.283960       0.094199
                                                         0.806764       1.289022
                                                         2.441624       2.311546
                                                         6.739673      -4.532415
                                                        34.417212     110.523457
                          1      13    4fyz2             0.040000       0.000000
                                                         0.097098      -0.001786
                                                         0.283960       0.094199
                                                         0.806764       1.289022
                                                         2.441624       2.311546
                                                         6.739673      -4.532415
                                                        34.417212     110.523457
                          1      13    4fz3              0.040000       0.000000
                                                         0.097098      -0.000799
                                                         0.283960       0.042127
                                                         0.806764       0.576468
                                                         2.441624       1.033755
                                                         6.739673      -2.026957
                                                        34.417212      49.427593

                          1      14    5fx3              0.040000       0.000092
                                                         0.097098       0.001511
                                                         0.283960      -0.094589
                                                         0.806764       0.000869
                                                         2.441624       0.000000
                                                         6.739673       0.000000
                                                        34.417212       0.000000
                          1      14    5fx2y             0.040000       0.000206
                                                         0.097098       0.003380
                                                         0.283960      -0.211507
                                                         0.806764       0.001943
                                                         2.441624       0.000000
                                                         6.739673       0.000000
                                                        34.417212       0.000000
                          1      14    5fx2z             0.040000       0.000206
                                                         0.097098       0.003380
                                                         0.283960      -0.211507
                                                         0.806764       0.001943
                                                         2.441624       0.000000
                                                         6.739673       0.000000
                                                        34.417212       0.000000
                          1      14    5fxy2             0.040000       0.000206
                                                         0.097098       0.003380
                                                         0.283960      -0.211507
                                                         0.806764       0.001943
                                                         2.441624       0.000000
                                                         6.739673       0.000000
                                                        34.417212       0.000000
                          1      14    5fxyz             0.040000       0.000357
                                                         0.097098       0.005854
                                                         0.283960      -0.366341
                                                         0.806764       0.003365
                                                         2.441624       0.000000
                                                         6.739673       0.000000
                                                        34.417212       0.000000
                          1      14    5fxz2             0.040000       0.000206
                                                         0.097098       0.003380
                                                         0.283960      -0.211507
                                                         0.806764       0.001943
                                                         2.441624       0.000000
                                                         6.739673       0.000000
                                                        34.417212       0.000000
                          1      14    5fy3              0.040000       0.000092
                                                         0.097098       0.001511
                                                         0.283960      -0.094589
                                                         0.806764       0.000869
                                                         2.441624       0.000000
                                                         6.739673       0.000000
                                                        34.417212       0.000000
                          1      14    5fy2z             0.040000       0.000206
                                                         0.097098       0.003380
                                                         0.283960      -0.211507
                                                         0.806764       0.001943
                                                         2.441624       0.000000
                                                         6.739673       0.000000
                                                        34.417212       0.000000
                          1      14    5fyz2             0.040000       0.000206
                                                         0.097098       0.003380
                                                         0.283960      -0.211507
                                                         0.806764       0.001943
                                                         2.441624       0.000000
                                                         6.739673       0.000000
                                                        34.417212       0.000000
                          1      14    5fz3              0.040000       0.000092
                                                         0.097098       0.001511
                                                         0.283960      -0.094589
                                                         0.806764       0.000869
                                                         2.441624       0.000000
                                                         6.739673       0.000000
                                                        34.417212       0.000000

                          1      15    5gx4              0.040000       0.000014
                                                         0.097098       0.001608
                                                         0.283960       0.004604
                                                         0.806764      -0.003474
                                                         2.441624       0.000000
                                                         6.739673       0.000000
                                                        34.417212       0.000000
                          1      15    5gx3y             0.040000       0.000036
                                                         0.097098       0.004255
                                                         0.283960       0.012180
                                                         0.806764      -0.009191
                                                         2.441624       0.000000
                                                         6.739673       0.000000
                                                        34.417212       0.000000
                          1      15    5gx3z             0.040000       0.000036
                                                         0.097098       0.004255
                                                         0.283960       0.012180
                                                         0.806764      -0.009191
                                                         2.441624       0.000000
                                                         6.739673       0.000000
                                                        34.417212       0.000000
                          1      15    5gx2y2            0.040000       0.000046
                                                         0.097098       0.005493
                                                         0.283960       0.015725
                                                         0.806764      -0.011865
                                                         2.441624       0.000000
                                                         6.739673       0.000000
                                                        34.417212       0.000000
                          1      15    5gx2yz            0.040000       0.000080
                                                         0.097098       0.009514
                                                         0.283960       0.027236
                                                         0.806764      -0.020551
                                                         2.441624       0.000000
                                                         6.739673       0.000000
                                                        34.417212       0.000000
                          1      15    5gx2z2            0.040000       0.000046
                                                         0.097098       0.005493
                                                         0.283960       0.015725
                                                         0.806764      -0.011865
                                                         2.441624       0.000000
                                                         6.739673       0.000000
                                                        34.417212       0.000000
                          1      15    5gxy3             0.040000       0.000036
                                                         0.097098       0.004255
                                                         0.283960       0.012180
                                                         0.806764      -0.009191
                                                         2.441624       0.000000
                                                         6.739673       0.000000
                                                        34.417212       0.000000
                          1      15    5gxy2z            0.040000       0.000080
                                                         0.097098       0.009514
                                                         0.283960       0.027236
                                                         0.806764      -0.020551
                                                         2.441624       0.000000
                                                         6.739673       0.000000
                                                        34.417212       0.000000
                          1      15    5gxyz2            0.040000       0.000080
                                                         0.097098       0.009514
                                                         0.283960       0.027236
                                                         0.806764      -0.020551
                                                         2.441624       0.000000
                                                         6.739673       0.000000
                                                        34.417212       0.000000
                          1      15    5gxz3             0.040000       0.000036
                                                         0.097098       0.004255
                                                         0.283960       0.012180
                                                         0.806764      -0.009191
                                                         2.441624       0.000000
                                                         6.739673       0.000000
                                                        34.417212       0.000000
                          1      15    5gy4              0.040000       0.000014
                                                         0.097098       0.001608
                                                         0.283960       0.004604
                                                         0.806764      -0.003474
                                                         2.441624       0.000000
                                                         6.739673       0.000000
                                                        34.417212       0.000000
                          1      15    5gy3z             0.040000       0.000036
                                                         0.097098       0.004255
                                                         0.283960       0.012180
                                                         0.806764      -0.009191
                                                         2.441624       0.000000
                                                         6.739673       0.000000
                                                        34.417212       0.000000
                          1      15    5gy2z2            0.040000       0.000046
                                                         0.097098       0.005493
                                                         0.283960       0.015725
                                                         0.806764      -0.011865
                                                         2.441624       0.000000
                                                         6.739673       0.000000
                                                        34.417212       0.000000
                          1      15    5gyz3             0.040000       0.000036
                                                         0.097098       0.004255
                                                         0.283960       0.012180
                                                         0.806764      -0.009191
                                                         2.441624       0.000000
                                                         6.739673       0.000000
                                                        34.417212       0.000000
                          1      15    5gz4              0.040000       0.000014
                                                         0.097098       0.001608
                                                         0.283960       0.004604
                                                         0.806764      -0.003474
                                                         2.441624       0.000000
                                                         6.739673       0.000000
                                                        34.417212       0.000000

                          2       1    1s            13575.369584       0.323227
                                                      2035.237517       2.062509
                                                       463.111112       2.210797
                                                       131.318553       4.954487
                                                        42.899593       1.730189
                                                        15.855102       4.257999

     RI Auxiliary Basis Set             RI_aug-TZVP-MOLOPT-ae_N_RI_051_s_p_d_f_g

       Number of orbital shell sets:                                          15
       Number of orbital shells:                                              15
       Number of primitive Cartesian functions:                               15
       Number of Cartesian basis functions:                                   65
       Number of spherical basis functions:                                   51
       Norm type:                                                              2

       Normalised Cartesian orbitals:

                        Set   Shell   Orbital            Exponent    Coefficient

                          1       1    1s                0.239354       0.243888

                          2       1    7px               0.457297       0.536029
                          2       1    7py               0.457297       0.536029
                          2       1    7pz               0.457297       0.536029

                          3       1    2s                0.477580       0.409444

                          4       1   13fx3              0.626438       0.513961
                          4       1   13fx2y             0.626438       1.149251
                          4       1   13fx2z             0.626438       1.149251
                          4       1   13fxy2             0.626438       1.149251
                          4       1   13fxyz             0.626438       1.990560
                          4       1   13fxz2             0.626438       1.149251
                          4       1   13fy3              0.626438       0.513961
                          4       1   13fy2z             0.626438       1.149251
                          4       1   13fyz2             0.626438       1.149251
                          4       1   13fz3              0.626438       0.513961

                          5       1   11dx2              0.685880       0.850832
                          5       1   11dxy              0.685880       1.473685
                          5       1   11dxz              0.685880       1.473685
                          5       1   11dy2              0.685880       0.850832
                          5       1   11dyz              0.685880       1.473685
                          5       1   11dz2              0.685880       0.850832

                          6       1   15gx4              1.006209       1.131953
                          6       1   15gx3y             1.006209       2.994867
                          6       1   15gx3z             1.006209       2.994867
                          6       1   15gx2y2            1.006209       3.866357
                          6       1   15gx2yz            1.006209       6.696726
                          6       1   15gx2z2            1.006209       3.866357
                          6       1   15gxy3             1.006209       2.994867
                          6       1   15gxy2z            1.006209       6.696726
                          6       1   15gxyz2            1.006209       6.696726
                          6       1   15gxz3             1.006209       2.994867
                          6       1   15gy4              1.006209       1.131953
                          6       1   15gy3z             1.006209       2.994867
                          6       1   15gy2z2            1.006209       3.866357
                          6       1   15gyz3             1.006209       2.994867
                          6       1   15gz4              1.006209       1.131953

                          7       1    8px               1.070377       1.551891
                          7       1    8py               1.070377       1.551891
                          7       1    8pz               1.070377       1.551891

                          8       1    3s                1.479597       0.956132

                          9       1   14fx3              1.611599       4.308070
                          9       1   14fx2y             1.611599       9.633137
                          9       1   14fx2z             1.611599       9.633137
                          9       1   14fxy2             1.611599       9.633137
                          9       1   14fxyz             1.611599      16.685083
                          9       1   14fxz2             1.611599       9.633137
                          9       1   14fy3              1.611599       4.308070
                          9       1   14fy2z             1.611599       9.633137
                          9       1   14fyz2             1.611599       9.633137
                          9       1   14fz3              1.611599       4.308070

                         10       1   12dx2              1.965056       5.368036
                         10       1   12dxy              1.965056       9.297712
                         10       1   12dxz              1.965056       9.297712
                         10       1   12dy2              1.965056       5.368036
                         10       1   12dyz              1.965056       9.297712
                         10       1   12dz2              1.965056       5.368036

                         11       1    9px               3.214966       6.136356
                         11       1    9py               3.214966       6.136356
                         11       1    9pz               3.214966       6.136356

                         12       1    4s                5.694804       2.627357

                         13       1   10px              16.297948      46.677357
                         13       1   10py              16.297948      46.677357
                         13       1   10pz              16.297948      46.677357

                         14       1    5s               21.820094       7.195360

                         15       1    6s               81.848368      19.394010

       Atomic covalent radius [Angstrom]:                                  0.770

       Atomic van der Waals radius [Angstrom]:                             1.700

     The atoms of this atomic kind are PAW atoms (GAPW):
       Hard Gaussian function radius:                                      1.512
       Rho0 radius:                                                        1.512
       Maximum GTO radius used for PAW projector construction:            24.566

     GAPW Soft Basis Set                                 aug-TZVP-MOLOPT-ae_soft

       Number of orbital shell sets:                                           2
       Number of orbital shells:                                              16
       Number of primitive Cartesian functions:                                5
       Number of Cartesian basis functions:                                   71
       Number of spherical basis functions:                                   56
       Norm type:                                                              2

       Normalised Cartesian orbitals:

                        Set   Shell   Orbital            Exponent    Coefficient

                          1       1    1s                0.040000       0.000000
                                                         0.097098       0.019281
                                                         0.283960       0.027513
                                                         0.806764       0.003692
                                                         2.441624       0.446183

                          1       2    2s                0.040000       0.000000
                                                         0.097098       0.029117
                                                         0.283960       0.094997
                                                         0.806764       0.362633
                                                         2.441624      -0.104551

                          1       3    3s                0.040000       0.000000
                                                         0.097098       0.047046
                                                         0.283960       0.169545
                                                         0.806764      -0.252838
                                                         2.441624      -0.199197

                          1       4    4s                0.040000       0.000000
                                                         0.097098       0.188374
                                                         0.283960      -0.341415
                                                         0.806764       0.091223
                                                         2.441624      -0.053941

                          1       5    5s                0.040000       0.099533
                                                         0.097098      -0.167672
                                                         0.283960      -0.126383
                                                         0.806764       0.030074
                                                         2.441624       0.000000

                          1       6    2px               0.040000       0.000000
                                                         0.097098       0.005087
                                                         0.283960       0.032186
                                                         0.806764       0.779023
                                                         2.441624       0.695625
                          1       6    2py               0.040000       0.000000
                                                         0.097098       0.005087
                                                         0.283960       0.032186
                                                         0.806764       0.779023
                                                         2.441624       0.695625
                          1       6    2pz               0.040000       0.000000
                                                         0.097098       0.005087
                                                         0.283960       0.032186
                                                         0.806764       0.779023
                                                         2.441624       0.695625

                          1       7    3px               0.040000       0.000000
                                                         0.097098       0.008084
                                                         0.283960       0.294367
                                                         0.806764      -0.188640
                                                         2.441624       0.912249
                          1       7    3py               0.040000       0.000000
                                                         0.097098       0.008084
                                                         0.283960       0.294367
                                                         0.806764      -0.188640
                                                         2.441624       0.912249
                          1       7    3pz               0.040000       0.000000
                                                         0.097098       0.008084
                                                         0.283960       0.294367
                                                         0.806764      -0.188640
                                                         2.441624       0.912249

                          1       8    4px               0.040000       0.000000
                                                         0.097098       0.081068
                                                         0.283960      -0.017243
                                                         0.806764      -0.070055
                                                         2.441624      -0.855991
                          1       8    4py               0.040000       0.000000
                                                         0.097098       0.081068
                                                         0.283960      -0.017243
                                                         0.806764      -0.070055
                                                         2.441624      -0.855991
                          1       8    4pz               0.040000       0.000000
                                                         0.097098       0.081068
                                                         0.283960      -0.017243
                                                         0.806764      -0.070055
                                                         2.441624      -0.855991

                          1       9    5px               0.040000       0.032085
                                                         0.097098      -0.027366
                                                         0.283960      -0.100343
                                                         0.806764      -0.020266
                                                         2.441624       0.000000
                          1       9    5py               0.040000       0.032085
                                                         0.097098      -0.027366
                                                         0.283960      -0.100343
                                                         0.806764      -0.020266
                                                         2.441624       0.000000
                          1       9    5pz               0.040000       0.032085
                                                         0.097098      -0.027366
                                                         0.283960      -0.100343
                                                         0.806764      -0.020266
                                                         2.441624       0.000000

                          1      10    3dx2              0.040000       0.000000
                                                         0.097098       0.001415
                                                         0.283960       0.015501
                                                         0.806764       0.546922
                                                         2.441624       3.763414
                          1      10    3dxy              0.040000       0.000000
                                                         0.097098       0.002451
                                                         0.283960       0.026849
                                                         0.806764       0.947296
                                                         2.441624       6.518424
                          1      10    3dxz              0.040000       0.000000
                                                         0.097098       0.002451
                                                         0.283960       0.026849
                                                         0.806764       0.947296
                                                         2.441624       6.518424
                          1      10    3dy2              0.040000       0.000000
                                                         0.097098       0.001415
                                                         0.283960       0.015501
                                                         0.806764       0.546922
                                                         2.441624       3.763414
                          1      10    3dyz              0.040000       0.000000
                                                         0.097098       0.002451
                                                         0.283960       0.026849
                                                         0.806764       0.947296
                                                         2.441624       6.518424
                          1      10    3dz2              0.040000       0.000000
                                                         0.097098       0.001415
                                                         0.283960       0.015501
                                                         0.806764       0.546922
                                                         2.441624       3.763414

                          1      11    4dx2              0.040000       0.000000
                                                         0.097098       0.001225
                                                         0.283960       0.139703
                                                         0.806764       0.323683
                                                         2.441624      -2.510108
                          1      11    4dxy              0.040000       0.000000
                                                         0.097098       0.002122
                                                         0.283960       0.241972
                                                         0.806764       0.560636
                                                         2.441624      -4.347634
                          1      11    4dxz              0.040000       0.000000
                                                         0.097098       0.002122
                                                         0.283960       0.241972
                                                         0.806764       0.560636
                                                         2.441624      -4.347634
                          1      11    4dy2              0.040000       0.000000
                                                         0.097098       0.001225
                                                         0.283960       0.139703
                                                         0.806764       0.323683
                                                         2.441624      -2.510108
                          1      11    4dyz              0.040000       0.000000
                                                         0.097098       0.002122
                                                         0.283960       0.241972
                                                         0.806764       0.560636
                                                         2.441624      -4.347634
                          1      11    4dz2              0.040000       0.000000
                                                         0.097098       0.001225
                                                         0.283960       0.139703
                                                         0.806764       0.323683
                                                         2.441624      -2.510108

                          1      12    5dx2              0.040000       0.006049
                                                         0.097098      -0.003128
                                                         0.283960       0.033814
                                                         0.806764       0.003338
                                                         2.441624       0.000000
                          1      12    5dxy              0.040000       0.010477
                                                         0.097098      -0.005418
                                                         0.283960       0.058567
                                                         0.806764       0.005781
                                                         2.441624       0.000000
                          1      12    5dxz              0.040000       0.010477
                                                         0.097098      -0.005418
                                                         0.283960       0.058567
                                                         0.806764       0.005781
                                                         2.441624       0.000000
                          1      12    5dy2              0.040000       0.006049
                                                         0.097098      -0.003128
                                                         0.283960       0.033814
                                                         0.806764       0.003338
                                                         2.441624       0.000000
                          1      12    5dyz              0.040000       0.010477
                                                         0.097098      -0.005418
                                                         0.283960       0.058567
                                                         0.806764       0.005781
                                                         2.441624       0.000000
                          1      12    5dz2              0.040000       0.006049
                                                         0.097098      -0.003128
                                                         0.283960       0.033814
                                                         0.806764       0.003338
                                                         2.441624       0.000000

                          1      13    4fx3              0.040000       0.000000
                                                         0.097098      -0.000799
                                                         0.283960       0.042127
                                                         0.806764       0.576468
                                                         2.441624       1.033755
                          1      13    4fx2y             0.040000       0.000000
                                                         0.097098      -0.001786
                                                         0.283960       0.094199
                                                         0.806764       1.289022
                                                         2.441624       2.311546
                          1      13    4fx2z             0.040000       0.000000
                                                         0.097098      -0.001786
                                                         0.283960       0.094199
                                                         0.806764       1.289022
                                                         2.441624       2.311546
                          1      13    4fxy2             0.040000       0.000000
                                                         0.097098      -0.001786
                                                         0.283960       0.094199
                                                         0.806764       1.289022
                                                         2.441624       2.311546
                          1      13    4fxyz             0.040000       0.000000
                                                         0.097098      -0.003093
                                                         0.283960       0.163158
                                                         0.806764       2.232651
                                                         2.441624       4.003716
                          1      13    4fxz2             0.040000       0.000000
                                                         0.097098      -0.001786
                                                         0.283960       0.094199
                                                         0.806764       1.289022
                                                         2.441624       2.311546
[...]
   418 Broy./Diag. 0.10E+00    5.8     0.01616963       -75.8422701074  5.59E-03
   419 Broy./Diag. 0.10E+00    5.8     0.01382746       -75.8329551544  9.31E-03
   420 Broy./Diag. 0.10E+00    5.9     0.01476084       -75.8211730322  1.18E-02
   421 Broy./Diag. 0.10E+00    5.9     0.03679654       -75.7900032647  3.12E-02
   422 Broy./Diag. 0.10E+00    5.8     0.02847648       -75.7685428031  2.15E-02
   423 Broy./Diag. 0.10E+00    5.8     0.01271049       -75.7473631943  2.12E-02
   424 Broy./Diag. 0.10E+00    5.9     0.03592115       -75.7635850360 -1.62E-02
   425 Broy./Diag. 0.10E+00    5.9     0.04354838       -75.7913100313 -2.77E-02
   426 Broy./Diag. 0.10E+00    5.8     0.02491706       -75.7889163270  2.39E-03
   427 Broy./Diag. 0.10E+00    5.8     0.01208499       -75.7685128878  2.04E-02
   428 Broy./Diag. 0.10E+00    5.8     0.00436368       -75.7603810485  8.13E-03
   429 Broy./Diag. 0.10E+00    5.8     0.01222957       -75.7676403087 -7.26E-03
   430 Broy./Diag. 0.10E+00    5.8     0.02693859       -75.7765428378 -8.90E-03
   431 Broy./Diag. 0.10E+00    5.8     0.03262648       -75.7856396138 -9.10E-03
   432 Broy./Diag. 0.10E+00    5.9     0.01240380       -75.7884149477 -2.78E-03
   433 Broy./Diag. 0.10E+00    5.8     0.01245774       -75.7904010008 -1.99E-03
   434 Broy./Diag. 0.10E+00    5.8     0.01550027       -75.7959686223 -5.57E-03
   435 Broy./Diag. 0.10E+00    5.8     0.02161578       -75.8022129207 -6.24E-03
   436 Broy./Diag. 0.10E+00    5.8     0.01780560       -75.8067015228 -4.49E-03
   437 Broy./Diag. 0.10E+00    5.8     0.01452322       -75.8035382858  3.16E-03
   438 Broy./Diag. 0.10E+00    5.8     0.02009175       -75.8028201905  7.18E-04
   439 Broy./Diag. 0.10E+00    5.8     0.01914818       -75.7928212648  1.00E-02
   440 Broy./Diag. 0.10E+00    5.8     0.02299839       -75.7807067824  1.21E-02
   441 Broy./Diag. 0.10E+00    5.8     0.02764224       -75.7609837003  1.97E-02
   442 Broy./Diag. 0.10E+00    5.8     0.03014485       -75.7343549764  2.66E-02
   443 Broy./Diag. 0.10E+00    5.8     0.03012225       -75.7019056774  3.24E-02
   444 Broy./Diag. 0.10E+00    5.8     0.02820521       -75.6732591517  2.86E-02
   445 Broy./Diag. 0.10E+00    5.9     0.02565480       -75.6483546059  2.49E-02
   446 Broy./Diag. 0.10E+00    5.8     0.03569200       -75.6263020420  2.21E-02
   447 Broy./Diag. 0.10E+00    5.8     0.03724447       -75.6084884489  1.78E-02
   448 Broy./Diag. 0.10E+00    5.7     0.02822564       -75.5914925178  1.70E-02
   449 Broy./Diag. 0.10E+00    5.7     0.02455039       -75.5840493646  7.44E-03
   450 Broy./Diag. 0.10E+00    5.7     0.02635543       -75.5882381121 -4.19E-03
   451 Broy./Diag. 0.10E+00    5.7     0.02362754       -75.5781828669  1.01E-02
   452 Broy./Diag. 0.10E+00    5.7     0.02809986       -75.5509074810  2.73E-02
   453 Broy./Diag. 0.10E+00    5.7     0.03638135       -75.5163043282  3.46E-02
   454 Broy./Diag. 0.10E+00    5.7     0.05164883       -75.4869715678  2.93E-02
   455 Broy./Diag. 0.10E+00    5.8     0.03708970       -75.4985675630 -1.16E-02
   456 Broy./Diag. 0.10E+00    5.8     0.02076260       -75.5487510181 -5.02E-02
   457 Broy./Diag. 0.10E+00    5.8     0.07605022       -75.5498965650 -1.15E-03
   458 Broy./Diag. 0.10E+00    5.7     0.04312733       -75.6896982423 -1.40E-01
   459 Broy./Diag. 0.10E+00    5.8     0.03174515       -75.6745478275  1.52E-02
   460 Broy./Diag. 0.10E+00    5.8     0.02786309       -75.7067438823 -3.22E-02
   461 Broy./Diag. 0.10E+00    5.8     0.02034054       -75.7568864606 -5.01E-02
   462 Broy./Diag. 0.10E+00    5.8     0.03724790       -75.8078774586 -5.10E-02
   463 Broy./Diag. 0.10E+00    5.8     0.03136675       -75.8127377256 -4.86E-03
   464 Broy./Diag. 0.10E+00    5.8     0.02461443       -75.7958181723  1.69E-02
   465 Broy./Diag. 0.10E+00    5.8     0.02298722       -75.8099283314 -1.41E-02
   466 Broy./Diag. 0.10E+00    5.8     0.02467951       -75.8238819325 -1.40E-02
   467 Broy./Diag. 0.10E+00    5.8     0.02929375       -75.8318865418 -8.00E-03
   468 Broy./Diag. 0.10E+00    5.8     0.02932262       -75.8393340990 -7.45E-03
   469 Broy./Diag. 0.10E+00    5.8     0.02597749       -75.8408824530 -1.55E-03
   470 Broy./Diag. 0.10E+00    5.9     0.02345054       -75.8424508309 -1.57E-03
   471 Broy./Diag. 0.10E+00    5.8     0.01862947       -75.8284221941  1.40E-02
   472 Broy./Diag. 0.10E+00    5.9     0.01517839       -75.8113090380  1.71E-02
   473 Broy./Diag. 0.10E+00    5.8     0.02077742       -75.7801396783  3.12E-02
   474 Broy./Diag. 0.10E+00    5.8     0.01560872       -75.7668076606  1.33E-02
   475 Broy./Diag. 0.10E+00    5.8     0.01955279       -75.7423836357  2.44E-02
   476 Broy./Diag. 0.10E+00    5.8     0.01894523       -75.7202097275  2.22E-02
   477 Broy./Diag. 0.10E+00    6.0     0.01953453       -75.6954305286  2.48E-02
   478 Broy./Diag. 0.10E+00    5.8     0.01241117       -75.6824377201  1.30E-02
   479 Broy./Diag. 0.10E+00    5.9     0.01063247       -75.7076782441 -2.52E-02
   480 Broy./Diag. 0.10E+00    5.8     0.03793130       -75.7545964467 -4.69E-02
   481 Broy./Diag. 0.10E+00    5.8     0.03198507       -75.7821694488 -2.76E-02
   482 Broy./Diag. 0.10E+00    5.9     0.03908781       -75.8136261278 -3.15E-02
   483 Broy./Diag. 0.10E+00    5.9     0.03661197       -75.8465177462 -3.29E-02
   484 Broy./Diag. 0.10E+00    5.8     0.02426246       -75.8671660103 -2.06E-02
   485 Broy./Diag. 0.10E+00    5.8     0.02466528       -75.8676185851 -4.53E-04
   486 Broy./Diag. 0.10E+00    5.8     0.01552522       -75.8689851107 -1.37E-03
   487 Broy./Diag. 0.10E+00    5.8     0.01266317       -75.8706982366 -1.71E-03
   488 Broy./Diag. 0.10E+00    5.8     0.00865502       -75.8562118896  1.45E-02
   489 Broy./Diag. 0.10E+00    5.8     0.00632160       -75.8398929708  1.63E-02
   490 Broy./Diag. 0.10E+00    5.8     0.00523367       -75.8249007058  1.50E-02
   491 Broy./Diag. 0.10E+00    5.7     0.00490504       -75.8131162388  1.18E-02
   492 Broy./Diag. 0.10E+00    5.7     0.00607970       -75.7992486925  1.39E-02
   493 Broy./Diag. 0.10E+00    5.8     0.00908943       -75.7978040810  1.44E-03
   494 Broy./Diag. 0.10E+00    5.8     0.02238075       -75.7991265935 -1.32E-03
   495 Broy./Diag. 0.10E+00    5.8     0.01909714       -75.8046376377 -5.51E-03
   496 Broy./Diag. 0.10E+00    5.8     0.03451781       -75.8074270359 -2.79E-03
   497 Broy./Diag. 0.10E+00    5.8     0.03636738       -75.8037018183  3.73E-03
   498 Broy./Diag. 0.10E+00    5.8     0.03516680       -75.7845722009  1.91E-02
   499 Broy./Diag. 0.10E+00    5.8     0.03262382       -75.7589022812  2.57E-02
   500 Broy./Diag. 0.10E+00    5.8     0.03506385       -75.7263682508  3.25E-02

  Leaving inner SCF loop after reaching   500 steps.


  Electronic density on regular grids:         -8.2376469554        3.7623530446
  Core density on regular grids:               12.0000000000        0.0000000000
  Hard and soft densities (Lebedev):          -98.4851981900      -94.7179133749
  Total Rho_soft + Rho1_hard - Rho1_soft      -12.0049317705
  Total charge density (r-space):              -0.0049317705
  Total Rho_soft + Rho0_soft (g-space):        -0.0049318447

  Overlap energy of the core charge distribution:               0.00003125550742
  Self energy of the core charge distribution:                -58.22549323810243
  Core Hamiltonian energy:                                    -15.10474729591279
  Hartree energy:                                              16.67161824007948
  Exchange-correlation energy:                                 -2.56139476584210
  Hartree-Fock Exchange energy:                                -2.52896785923632

  GAPW| Exc from hard and soft atomic rho1:                    -5.39340084741826
  GAPW| local Eh = 1 center integrals:                         -8.58401373990426

  Total energy:                                               -75.72636825082928

 *******************************************************************************
 *   ___                                                                       *
 *  /   \                                                                      *
 * [ABORT]                                                                     *
 *  \___/     SCF run NOT converged. To continue the calculation regardless,   *
 *    |             please set the keyword IGNORE_CONVERGENCE_FAILURE.         *
 *  O/|                                                                        *
 * /| |                                                                        *
 * / \                                                            qs_scf.F:611 *
 *******************************************************************************


 ===== Routine Calling Stack ===== 

            3 scf_env_do_scf
            2 qs_energies
            1 CP2K

 *******************************************************************************
 *   ___                                                                       *
 *  /   \                                                                      *
 * [ABORT]                                                                     *
 *  \___/     SCF run NOT converged. To continue the calculation regardless,   *
 *    |             please set the keyword IGNORE_CONVERGENCE_FAILURE.         *
 *  O/|                                                                        *
 * /| |                                                                        *
 * / \                                                            qs_scf.F:611 *
 *******************************************************************************


 ===== Routine Calling Stack ===== 

            3 scf_env_do_scf
            2 qs_energies
            1 CP2K

 *******************************************************************************
 *   ___                                                                       *
 *  /   \                                                                      *
 * [ABORT]                                                                     *
 *  \___/     SCF run NOT converged. To continue the calculation regardless,   *
 *    |             please set the keyword IGNORE_CONVERGENCE_FAILURE.         *
 *  O/|                                                                        *
 * /| |                                                                        *
 * / \                                                            qs_scf.F:611 *
 *******************************************************************************


 ===== Routine Calling Stack ===== 

            3 scf_env_do_scf
            2 qs_energies
            1 CP2K

 *******************************************************************************
 *   ___                                                                       *
 *  /   \                                                                      *
 * [ABORT]                                                                     *
 *  \___/     SCF run NOT converged. To continue the calculation regardless,   *
 *    |             please set the keyword IGNORE_CONVERGENCE_FAILURE.         *
 *  O/|                                                                        *
 * /| |                                                                        *
 * / \                                                            qs_scf.F:611 *
 *******************************************************************************


 ===== Routine Calling Stack ===== 

            3 scf_env_do_scf
            2 qs_energies
            1 CP2K

 *******************************************************************************
 *   ___                                                                       *
 *  /   \                                                                      *
 * [ABORT]                                                                     *
 *  \___/     SCF run NOT converged. To continue the calculation regardless,   *
 *    |             please set the keyword IGNORE_CONVERGENCE_FAILURE.         *
 *  O/|                                                                        *
 * /| |                                                                        *
 * / \                                                            qs_scf.F:611 *
 *******************************************************************************


 ===== Routine Calling Stack ===== 

            3 scf_env_do_scf
            2 qs_energies
            1 CP2K

 *******************************************************************************
 *   ___                                                                       *
 *  /   \                                                                      *
 * [ABORT]                                                                     *
 *  \___/     SCF run NOT converged. To continue the calculation regardless,   *
 *    |             please set the keyword IGNORE_CONVERGENCE_FAILURE.         *
 *  O/|                                                                        *
 * /| |                                                                        *
 * / \                                                            qs_scf.F:611 *
 *******************************************************************************


 ===== Routine Calling Stack ===== 

            3 scf_env_do_scf
            2 qs_energies
            1 CP2K

 *******************************************************************************
 *   ___                                                                       *
 *  /   \                                                                      *
 * [ABORT]                                                                     *
 *  \___/     SCF run NOT converged. To continue the calculation regardless,   *
 *    |             please set the keyword IGNORE_CONVERGENCE_FAILURE.         *
 *  O/|                                                                        *
 * /| |                                                                        *
 * / \                                                            qs_scf.F:611 *
 *******************************************************************************


 ===== Routine Calling Stack ===== 

            3 scf_env_do_scf
            2 qs_energies
            1 CP2K

 *******************************************************************************
 *   ___                                                                       *
 *  /   \                                                                      *
 * [ABORT]                                                                     *
 *  \___/     SCF run NOT converged. To continue the calculation regardless,   *
 *    |             please set the keyword IGNORE_CONVERGENCE_FAILURE.         *
 *  O/|                                                                        *
 * /| |                                                                        *
 * / \                                                            qs_scf.F:611 *
 *******************************************************************************


 ===== Routine Calling Stack ===== 

            3 scf_env_do_scf
            2 qs_energies
            1 CP2K

 *******************************************************************************
 *   ___                                                                       *
 *  /   \                                                                      *
 * [ABORT]                                                                     *
 *  \___/     SCF run NOT converged. To continue the calculation regardless,   *
 *    |             please set the keyword IGNORE_CONVERGENCE_FAILURE.         *
 *  O/|                                                                        *
 * /| |                                                                        *
 * / \                                                            qs_scf.F:611 *
 *******************************************************************************


 ===== Routine Calling Stack ===== 

            3 scf_env_do_scf
            2 qs_energies
            1 CP2K

 *******************************************************************************
 *   ___                                                                       *
 *  /   \                                                                      *
 * [ABORT]                                                                     *
 *  \___/     SCF run NOT converged. To continue the calculation regardless,   *
 *    |             please set the keyword IGNORE_CONVERGENCE_FAILURE.         *
 *  O/|                                                                        *
 * /| |                                                                        *
 * / \                                                            qs_scf.F:611 *
 *******************************************************************************


 ===== Routine Calling Stack ===== 

            3 scf_env_do_scf
            2 qs_energies
            1 CP2K

 *******************************************************************************
 *   ___                                                                       *
 *  /   \                                                                      *
 * [ABORT]                                                                     *
 *  \___/     SCF run NOT converged. To continue the calculation regardless,   *
 *    |             please set the keyword IGNORE_CONVERGENCE_FAILURE.         *
 *  O/|                                                                        *
 * /| |                                                                        *
 * / \                                                            qs_scf.F:611 *
 *******************************************************************************


 ===== Routine Calling Stack ===== 

            3 scf_env_do_scf
            2 qs_energies
            1 CP2K

 *******************************************************************************
 *   ___                                                                       *
 *  /   \                                                                      *
 * [ABORT]                                                                     *
 *  \___/     SCF run NOT converged. To continue the calculation regardless,   *
 *    |             please set the keyword IGNORE_CONVERGENCE_FAILURE.         *
 *  O/|                                                                        *
 * /| |                                                                        *
 * / \                                                            qs_scf.F:611 *
 *******************************************************************************


 ===== Routine Calling Stack ===== 

            3 scf_env_do_scf
            2 qs_energies
            1 CP2K

 *******************************************************************************
 *   ___                                                                       *
 *  /   \                                                                      *
 * [ABORT]                                                                     *
 *  \___/     SCF run NOT converged. To continue the calculation regardless,   *
 *    |             please set the keyword IGNORE_CONVERGENCE_FAILURE.         *
 *  O/|                                                                        *
 * /| |                                                                        *
 * / \                                                            qs_scf.F:611 *
 *******************************************************************************


 ===== Routine Calling Stack ===== 

            3 scf_env_do_scf
            2 qs_energies
            1 CP2K
