 DBCSR| CPU Multiplication driver                                           BLAS (U)
 DBCSR| Multrec recursion limit                                              512 (U)
 DBCSR| Multiplication stack size                                           1000 (D)
 DBCSR| Maximum elements for images                                    UNLIMITED (U)
 DBCSR| Multiplicative factor virtual images                                   1 (U)
 DBCSR| Use multiplication densification                                       T (D)
 DBCSR| Multiplication size stacks                                             3 (U)
 DBCSR| Use memory pool for CPU allocation                                     F (U)
 DBCSR| Number of 3D layers                                               SINGLE (U)
 DBCSR| Use MPI memory allocation                                              F (U)
 DBCSR| Use RMA algorithm                                                      F (U)
 DBCSR| Use Communication thread                                               T (U)
 DBCSR| Communication thread load                                             75 (D)
 DBCSR| MPI: My process id                                                     0
 DBCSR| MPI: Number of processes                                              24
 DBCSR| OMP: Current number of threads                                         4
 DBCSR| OMP: Max number of threads                                             4
 DBCSR| Split modifier for TAS multiplication algorithm                  1.0E+00 (U)


  **** **** ******  **  PROGRAM STARTED AT               2025-03-07 04:26:59.764
 ***** ** ***  *** **   PROGRAM STARTED ON                          i01r05c06s01
 **    ****   ******    PROGRAM STARTED BY                               di38fab
 ***** **    ** ** **   PROGRAM PROCESS ID                                390830
  **** **  *******  **  PROGRAM STARTED IN /hppfs/scratch/04/di38fab/05_MOL/W4-1
                                           1+ALK/c2/TZVP

 CP2K| version string:                 CP2K version 2025.1 (Development Version)
 CP2K| source code revision number:                                  git:47877ba
 CP2K| cp2kflags: omp libint fftw3 libxc parallel scalapack max_contr=4         
 CP2K| is freely available from                            https://www.cp2k.org/
 CP2K| Program compiled at                          Thu Feb 20 16:00:34 CET 2025
 CP2K| Program compiled on                                               login04
 CP2K| Program compiled for                                        Supermuc-foss
 CP2K| Data directory path          /hppfs/work/pn36zo/di38fab/newcp2k/cp2k/data
 CP2K| Input file name                                                    GW.inp

 GLOBAL| Force Environment number                                              1
 GLOBAL| Basis set file name            /hppfs/scratch/04/di38fab/04_TMD/BASIS_A
 GLOBAL| Potential file name            /hppfs/work/pn36zo/di38fab/cp2k/data/ALL
 GLOBAL| MM Potential file name                                     MM_POTENTIAL
 GLOBAL| Coordinate file name                                      __STD_INPUT__
 GLOBAL| Method name                                                        CP2K
 GLOBAL| Project name                                                       MoS2
 GLOBAL| Run type                                                         ENERGY
 GLOBAL| FFT library                                                       FFTW3
 GLOBAL| Diagonalization library                                       ScaLAPACK
 GLOBAL| DGEMM library                                                      BLAS
 GLOBAL| Orthonormality check for eigenvectors                          DISABLED
 GLOBAL| Matrix multiplication library                                 ScaLAPACK
 GLOBAL| All-to-all communication in single precision                          F
 GLOBAL| FFTs using library dependent lengths                                  F
 GLOBAL| Grid backend                                                       AUTO
 GLOBAL| Global print level                                               MEDIUM
 GLOBAL| MPI I/O enabled                                                       T
 GLOBAL| Total number of message passing processes                            24
 GLOBAL| Number of threads for this process                                    4
 GLOBAL| This output is from process                                           0
 GLOBAL| OpenMP stack size per thread (OMP_STACKSIZE)                    default
 GLOBAL| CPU model name             Intel(R) Xeon(R) Platinum 8174 CPU @ 3.10GHz

 MEMORY| system memory details [Kb]
 MEMORY|                        rank 0           min           max       average
 MEMORY| MemTotal             98436660      98436660      98436664      98436662
 MEMORY| MemFree              83969960      83969960      84023928      83996944
 MEMORY| Buffers                     0             0             0             0
 MEMORY| Cached                2406800       2389676       2406800       2398238
 MEMORY| Slab                  1203436       1203436       1225428       1214432
 MEMORY| SReclaimable           264696        264696        268904        266800
 MEMORY| MemLikelyFree        86641456      86641456      86682508      86661982


 *** Fundamental physical constants (SI units) ***

 *** Literature: B. J. Mohr and B. N. Taylor,
 ***             CODATA recommended values of the fundamental physical
 ***             constants: 2006, Web Version 5.1
 ***             http://physics.nist.gov/constants

 Speed of light in vacuum [m/s]                             2.99792458000000E+08
 Magnetic constant or permeability of vacuum [N/A**2]       1.25663706143592E-06
 Electric constant or permittivity of vacuum [F/m]          8.85418781762039E-12
 Planck constant (h) [J*s]                                  6.62606896000000E-34
 Planck constant (h-bar) [J*s]                              1.05457162825177E-34
 Elementary charge [C]                                      1.60217648700000E-19
 Electron mass [kg]                                         9.10938215000000E-31
 Electron g factor [ ]                                     -2.00231930436220E+00
 Proton mass [kg]                                           1.67262163700000E-27
 Fine-structure constant                                    7.29735253760000E-03
 Rydberg constant [1/m]                                     1.09737315685270E+07
 Avogadro constant [1/mol]                                  6.02214179000000E+23
 Boltzmann constant [J/K]                                   1.38065040000000E-23
 Atomic mass unit [kg]                                      1.66053878200000E-27
 Bohr radius [m]                                            5.29177208590000E-11

 *** Conversion factors ***

 [u] -> [a.u.]                                              1.82288848426455E+03
 [Angstrom] -> [Bohr] = [a.u.]                              1.88972613288564E+00
 [a.u.] = [Bohr] -> [Angstrom]                              5.29177208590000E-01
 [a.u.] -> [s]                                              2.41888432650478E-17
 [a.u.] -> [fs]                                             2.41888432650478E-02
 [a.u.] -> [J]                                              4.35974393937059E-18
 [a.u.] -> [N]                                              8.23872205491840E-08
 [a.u.] -> [K]                                              3.15774647902944E+05
 [a.u.] -> [kJ/mol]                                         2.62549961709828E+03
 [a.u.] -> [kcal/mol]                                       6.27509468713739E+02
 [a.u.] -> [Pa]                                             2.94210107994716E+13
 [a.u.] -> [bar]                                            2.94210107994716E+08
 [a.u.] -> [atm]                                            2.90362800883016E+08
 [a.u.] -> [eV]                                             2.72113838565563E+01
 [a.u.] -> [Hz]                                             6.57968392072181E+15
 [a.u.] -> [1/cm] (wave numbers)                            2.19474631370540E+05
 [a.u./Bohr**2] -> [1/cm]                                   5.14048714338585E+03
 

 CELL_TOP| Volume [angstrom^3]:                                     27000.000000
 CELL_TOP| Vector a [angstrom    30.000     0.000     0.000   |a| =    30.000000
 CELL_TOP| Vector b [angstrom     0.000    30.000     0.000   |b| =    30.000000
 CELL_TOP| Vector c [angstrom     0.000     0.000    30.000   |c| =    30.000000
 CELL_TOP| Angle (b,c), alpha [degree]:                                90.000000
 CELL_TOP| Angle (a,c), beta  [degree]:                                90.000000
 CELL_TOP| Angle (a,b), gamma [degree]:                                90.000000
 CELL_TOP| Numerically orthorhombic:                                         YES
 CELL_TOP| Periodicity                                                      NONE

 GENERATE|  Preliminary Number of Bonds generated:                             0
 GENERATE|  Achieved consistency in connectivity generation.

 CELL| Volume [angstrom^3]:                                         27000.000000
 CELL| Vector a [angstrom]:      30.000     0.000     0.000   |a| =    30.000000
 CELL| Vector b [angstrom]:       0.000    30.000     0.000   |b| =    30.000000
 CELL| Vector c [angstrom]:       0.000     0.000    30.000   |c| =    30.000000
 CELL| Angle (b,c), alpha [degree]:                                    90.000000
 CELL| Angle (a,c), beta  [degree]:                                    90.000000
 CELL| Angle (a,b), gamma [degree]:                                    90.000000
 CELL| Numerically orthorhombic:                                             YES
 CELL| Periodicity                                                          NONE

 CELL_REF| Volume [angstrom^3]:                                     27000.000000
 CELL_REF| Vector a [angstrom    30.000     0.000     0.000   |a| =    30.000000
 CELL_REF| Vector b [angstrom     0.000    30.000     0.000   |b| =    30.000000
 CELL_REF| Vector c [angstrom     0.000     0.000    30.000   |c| =    30.000000
 CELL_REF| Angle (b,c), alpha [degree]:                                90.000000
 CELL_REF| Angle (a,c), beta  [degree]:                                90.000000
 CELL_REF| Angle (a,b), gamma [degree]:                                90.000000
 CELL_REF| Numerically orthorhombic:                                         YES
 CELL_REF| Periodicity                                                      NONE

 *******************************************************************************
 *******************************************************************************
 **                                                                           **
 **     #####                         ##              ##                      **
 **    ##   ##            ##          ##              ##                      **
 **   ##     ##                       ##            ######                    **
 **   ##     ##  ##   ##  ##   #####  ##  ##   ####   ##    #####    #####    **
 **   ##     ##  ##   ##  ##  ##      ## ##   ##      ##   ##   ##  ##   ##   **
 **   ##  ## ##  ##   ##  ##  ##      ####     ###    ##   ######   ######    **
 **    ##  ###   ##   ##  ##  ##      ## ##      ##   ##   ##       ##        **
 **     #######   #####   ##   #####  ##  ##  ####    ##    #####   ##        **
 **           ##                                                    ##        **
 **                                                                           **
 **                                                ... make the atoms dance   **
 **                                                                           **
 **            Copyright (C) by CP2K developers group (2000-2025)             **
 **                      J. Chem. Phys. 152, 194103 (2020)                    **
 **                                                                           **
 *******************************************************************************

 DFT| Spin restricted Kohn-Sham (RKS) calculation                            RKS
 DFT| Multiplicity                                                             1
 DFT| Number of spin states                                                    1
 DFT| Charge                                                                   0
 DFT| Self-interaction correction (SIC)                                       NO
 DFT| Cutoffs: density                                              1.000000E-10
 DFT|          gradient                                             1.000000E-10
 DFT|          tau                                                  1.000000E-10
 DFT|          cutoff_smoothing_range                               0.000000E+00
 DFT| XC density smoothing                                                  NONE
 DFT| XC derivatives                                                          PW

 FUNCTIONAL| PBE:
 FUNCTIONAL| J.P.Perdew, K.Burke, M.Ernzerhof, Phys. Rev. Letter, vol. 77, n 18,
 FUNCTIONAL|  pp. 3865-3868, (1996)sx=0.750sc=1.000{spin unpolarized}           


 QS| Method:                                                                GAPW
 QS| Density plane wave grid type                        NON-SPHERICAL FULLSPACE
 QS| Number of grid levels:                                                    4
 QS| Density cutoff [a.u.]:                                                250.0
 QS| Multi grid cutoff [a.u.]: 1) grid level                               250.0
 QS|                           2) grid level                                83.3
 QS|                           3) grid level                                27.8
 QS|                           4) grid level                                 9.3
 QS| Grid level progression factor:                                          3.0
 QS| Relative density cutoff [a.u.]:                                        50.0
 QS| Interaction thresholds: eps_pgf_orb:                                1.0E-12
 QS|                         eps_filter_matrix:                          0.0E+00
 QS|                         eps_core_charge:                            1.0E-14
 QS|                         eps_rho_gspace:                             1.0E-12
 QS|                         eps_rho_rspace:                             1.0E-12
 QS|                         eps_gvg_rspace:                             1.0E-06
 QS|                         eps_ppl:                                    1.0E-02
 QS|                         eps_ppnl:                                   1.0E-08
 QS| GAPW|      One center basis from orbital basis primitives
 QS| GAPW|                   eps_fit:                                    1.0E-04
 QS| GAPW|                   eps_iso:                                    1.0E-12
 QS| GAPW|                   eps_svd:                                    1.0E-08
 QS| GAPW|                   eps_cpc:                                    1.0E-12
 QS| GAPW|   atom-r-grid: quadrature:                                     GC_LOG
 QS| GAPW|      atom-s-grid:  max l :                                          8
 QS| GAPW|      max_l_rho0 :                                                   2


 ATOMIC KIND INFORMATION

  1. Atomic kind: C                                     Number of atoms:       2

     Orbital Basis Set                                        aug-TZVP-MOLOPT-ae

       Number of orbital shell sets:                                           2
       Number of orbital shells:                                              16
       Number of primitive Cartesian functions:                               13
       Number of Cartesian basis functions:                                   71
       Number of spherical basis functions:                                   56
       Norm type:                                                              2

       Normalised Cartesian orbitals:

                        Set   Shell   Orbital            Exponent    Coefficient

                          1       1    1s                0.040000       0.000000
                                                         0.097098       0.019281
                                                         0.283960       0.027513
                                                         0.806764       0.003692
                                                         2.441624       0.446183
                                                         6.739673       1.752510
                                                        34.417212       0.637474

                          1       2    2s                0.040000       0.000000
                                                         0.097098       0.029117
                                                         0.283960       0.094997
                                                         0.806764       0.362633
                                                         2.441624      -0.104551
                                                         6.739673      -0.288836
                                                        34.417212       1.102934

                          1       3    3s                0.040000       0.000000
                                                         0.097098       0.047046
                                                         0.283960       0.169545
                                                         0.806764      -0.252838
                                                         2.441624      -0.199197
                                                         6.739673      -0.168746
                                                        34.417212      -6.120053

                          1       4    4s                0.040000       0.000000
                                                         0.097098       0.188374
                                                         0.283960      -0.341415
                                                         0.806764       0.091223
                                                         2.441624      -0.053941
                                                         6.739673      -0.401007
                                                        34.417212      -3.786931

                          1       5    5s                0.040000       0.099533
                                                         0.097098      -0.167672
                                                         0.283960      -0.126383
                                                         0.806764       0.030074
                                                         2.441624       0.000000
                                                         6.739673       0.000000
                                                        34.417212       0.000000

                          1       6    2px               0.040000       0.000000
                                                         0.097098       0.005087
                                                         0.283960       0.032186
                                                         0.806764       0.779023
                                                         2.441624       0.695625
                                                         6.739673       2.243109
                                                        34.417212       2.016536
                          1       6    2py               0.040000       0.000000
                                                         0.097098       0.005087
                                                         0.283960       0.032186
                                                         0.806764       0.779023
                                                         2.441624       0.695625
                                                         6.739673       2.243109
                                                        34.417212       2.016536
                          1       6    2pz               0.040000       0.000000
                                                         0.097098       0.005087
                                                         0.283960       0.032186
                                                         0.806764       0.779023
                                                         2.441624       0.695625
                                                         6.739673       2.243109
                                                        34.417212       2.016536

                          1       7    3px               0.040000       0.000000
                                                         0.097098       0.008084
                                                         0.283960       0.294367
                                                         0.806764      -0.188640
                                                         2.441624       0.912249
                                                         6.739673      -2.720242
                                                        34.417212       1.690366
                          1       7    3py               0.040000       0.000000
                                                         0.097098       0.008084
                                                         0.283960       0.294367
                                                         0.806764      -0.188640
                                                         2.441624       0.912249
                                                         6.739673      -2.720242
                                                        34.417212       1.690366
                          1       7    3pz               0.040000       0.000000
                                                         0.097098       0.008084
                                                         0.283960       0.294367
                                                         0.806764      -0.188640
                                                         2.441624       0.912249
                                                         6.739673      -2.720242
                                                        34.417212       1.690366

                          1       8    4px               0.040000       0.000000
                                                         0.097098       0.081068
                                                         0.283960      -0.017243
                                                         0.806764      -0.070055
                                                         2.441624      -0.855991
                                                         6.739673       1.761645
                                                        34.417212     -12.705833
                          1       8    4py               0.040000       0.000000
                                                         0.097098       0.081068
                                                         0.283960      -0.017243
                                                         0.806764      -0.070055
                                                         2.441624      -0.855991
                                                         6.739673       1.761645
                                                        34.417212     -12.705833
                          1       8    4pz               0.040000       0.000000
                                                         0.097098       0.081068
                                                         0.283960      -0.017243
                                                         0.806764      -0.070055
                                                         2.441624      -0.855991
                                                         6.739673       1.761645
                                                        34.417212     -12.705833

                          1       9    5px               0.040000       0.032085
                                                         0.097098      -0.027366
                                                         0.283960      -0.100343
                                                         0.806764      -0.020266
                                                         2.441624       0.000000
                                                         6.739673       0.000000
                                                        34.417212       0.000000
                          1       9    5py               0.040000       0.032085
                                                         0.097098      -0.027366
                                                         0.283960      -0.100343
                                                         0.806764      -0.020266
                                                         2.441624       0.000000
                                                         6.739673       0.000000
                                                        34.417212       0.000000
                          1       9    5pz               0.040000       0.032085
                                                         0.097098      -0.027366
                                                         0.283960      -0.100343
                                                         0.806764      -0.020266
                                                         2.441624       0.000000
                                                         6.739673       0.000000
                                                        34.417212       0.000000

                          1      10    3dx2              0.040000       0.000000
                                                         0.097098       0.001415
                                                         0.283960       0.015501
                                                         0.806764       0.546922
                                                         2.441624       3.763414
                                                         6.739673       4.248634
                                                        34.417212     174.894573
                          1      10    3dxy              0.040000       0.000000
                                                         0.097098       0.002451
                                                         0.283960       0.026849
                                                         0.806764       0.947296
                                                         2.441624       6.518424
                                                         6.739673       7.358850
                                                        34.417212     302.926287
                          1      10    3dxz              0.040000       0.000000
                                                         0.097098       0.002451
                                                         0.283960       0.026849
                                                         0.806764       0.947296
                                                         2.441624       6.518424
                                                         6.739673       7.358850
                                                        34.417212     302.926287
                          1      10    3dy2              0.040000       0.000000
                                                         0.097098       0.001415
                                                         0.283960       0.015501
                                                         0.806764       0.546922
                                                         2.441624       3.763414
                                                         6.739673       4.248634
                                                        34.417212     174.894573
                          1      10    3dyz              0.040000       0.000000
                                                         0.097098       0.002451
                                                         0.283960       0.026849
                                                         0.806764       0.947296
                                                         2.441624       6.518424
                                                         6.739673       7.358850
                                                        34.417212     302.926287
                          1      10    3dz2              0.040000       0.000000
                                                         0.097098       0.001415
                                                         0.283960       0.015501
                                                         0.806764       0.546922
                                                         2.441624       3.763414
                                                         6.739673       4.248634
                                                        34.417212     174.894573

                          1      11    4dx2              0.040000       0.000000
                                                         0.097098       0.001225
                                                         0.283960       0.139703
                                                         0.806764       0.323683
                                                         2.441624      -2.510108
                                                         6.739673      -4.401044
                                                        34.417212    -164.169372
                          1      11    4dxy              0.040000       0.000000
                                                         0.097098       0.002122
                                                         0.283960       0.241972
                                                         0.806764       0.560636
                                                         2.441624      -4.347634
                                                         6.739673      -7.622831
                                                        34.417212    -284.349694
                          1      11    4dxz              0.040000       0.000000
                                                         0.097098       0.002122
                                                         0.283960       0.241972
                                                         0.806764       0.560636
                                                         2.441624      -4.347634
                                                         6.739673      -7.622831
                                                        34.417212    -284.349694
                          1      11    4dy2              0.040000       0.000000
                                                         0.097098       0.001225
                                                         0.283960       0.139703
                                                         0.806764       0.323683
                                                         2.441624      -2.510108
                                                         6.739673      -4.401044
                                                        34.417212    -164.169372
                          1      11    4dyz              0.040000       0.000000
                                                         0.097098       0.002122
                                                         0.283960       0.241972
                                                         0.806764       0.560636
                                                         2.441624      -4.347634
                                                         6.739673      -7.622831
                                                        34.417212    -284.349694
                          1      11    4dz2              0.040000       0.000000
                                                         0.097098       0.001225
                                                         0.283960       0.139703
                                                         0.806764       0.323683
                                                         2.441624      -2.510108
                                                         6.739673      -4.401044
                                                        34.417212    -164.169372

                          1      12    5dx2              0.040000       0.006049
                                                         0.097098      -0.003128
                                                         0.283960       0.033814
                                                         0.806764       0.003338
                                                         2.441624       0.000000
                                                         6.739673       0.000000
                                                        34.417212       0.000000
                          1      12    5dxy              0.040000       0.010477
                                                         0.097098      -0.005418
                                                         0.283960       0.058567
                                                         0.806764       0.005781
                                                         2.441624       0.000000
                                                         6.739673       0.000000
                                                        34.417212       0.000000
                          1      12    5dxz              0.040000       0.010477
                                                         0.097098      -0.005418
                                                         0.283960       0.058567
                                                         0.806764       0.005781
                                                         2.441624       0.000000
                                                         6.739673       0.000000
                                                        34.417212       0.000000
                          1      12    5dy2              0.040000       0.006049
                                                         0.097098      -0.003128
                                                         0.283960       0.033814
                                                         0.806764       0.003338
                                                         2.441624       0.000000
                                                         6.739673       0.000000
                                                        34.417212       0.000000
                          1      12    5dyz              0.040000       0.010477
                                                         0.097098      -0.005418
                                                         0.283960       0.058567
                                                         0.806764       0.005781
                                                         2.441624       0.000000
                                                         6.739673       0.000000
                                                        34.417212       0.000000
                          1      12    5dz2              0.040000       0.006049
                                                         0.097098      -0.003128
                                                         0.283960       0.033814
                                                         0.806764       0.003338
                                                         2.441624       0.000000
                                                         6.739673       0.000000
                                                        34.417212       0.000000

                          1      13    4fx3              0.040000       0.000000
                                                         0.097098      -0.000799
                                                         0.283960       0.042127
                                                         0.806764       0.576468
                                                         2.441624       1.033755
                                                         6.739673      -2.026957
                                                        34.417212      49.427593
                          1      13    4fx2y             0.040000       0.000000
                                                         0.097098      -0.001786
                                                         0.283960       0.094199
                                                         0.806764       1.289022
                                                         2.441624       2.311546
                                                         6.739673      -4.532415
                                                        34.417212     110.523457
                          1      13    4fx2z             0.040000       0.000000
                                                         0.097098      -0.001786
                                                         0.283960       0.094199
                                                         0.806764       1.289022
                                                         2.441624       2.311546
                                                         6.739673      -4.532415
                                                        34.417212     110.523457
                          1      13    4fxy2             0.040000       0.000000
                                                         0.097098      -0.001786
                                                         0.283960       0.094199
                                                         0.806764       1.289022
                                                         2.441624       2.311546
                                                         6.739673      -4.532415
                                                        34.417212     110.523457
                          1      13    4fxyz             0.040000       0.000000
                                                         0.097098      -0.003093
                                                         0.283960       0.163158
                                                         0.806764       2.232651
                                                         2.441624       4.003716
                                                         6.739673      -7.850372
                                                        34.417212     191.432243
                          1      13    4fxz2             0.040000       0.000000
                                                         0.097098      -0.001786
                                                         0.283960       0.094199
                                                         0.806764       1.289022
                                                         2.441624       2.311546
                                                         6.739673      -4.532415
                                                        34.417212     110.523457
                          1      13    4fy3              0.040000       0.000000
                                                         0.097098      -0.000799
                                                         0.283960       0.042127
                                                         0.806764       0.576468
                                                         2.441624       1.033755
                                                         6.739673      -2.026957
                                                        34.417212      49.427593
                          1      13    4fy2z             0.040000       0.000000
                                                         0.097098      -0.001786
                                                         0.283960       0.094199
                                                         0.806764       1.289022
                                                         2.441624       2.311546
                                                         6.739673      -4.532415
                                                        34.417212     110.523457
                          1      13    4fyz2             0.040000       0.000000
                                                         0.097098      -0.001786
                                                         0.283960       0.094199
                                                         0.806764       1.289022
                                                         2.441624       2.311546
                                                         6.739673      -4.532415
                                                        34.417212     110.523457
                          1      13    4fz3              0.040000       0.000000
                                                         0.097098      -0.000799
                                                         0.283960       0.042127
                                                         0.806764       0.576468
                                                         2.441624       1.033755
                                                         6.739673      -2.026957
                                                        34.417212      49.427593

                          1      14    5fx3              0.040000       0.000092
                                                         0.097098       0.001511
                                                         0.283960      -0.094589
                                                         0.806764       0.000869
                                                         2.441624       0.000000
                                                         6.739673       0.000000
                                                        34.417212       0.000000
                          1      14    5fx2y             0.040000       0.000206
                                                         0.097098       0.003380
                                                         0.283960      -0.211507
                                                         0.806764       0.001943
                                                         2.441624       0.000000
                                                         6.739673       0.000000
                                                        34.417212       0.000000
                          1      14    5fx2z             0.040000       0.000206
                                                         0.097098       0.003380
                                                         0.283960      -0.211507
                                                         0.806764       0.001943
                                                         2.441624       0.000000
                                                         6.739673       0.000000
                                                        34.417212       0.000000
                          1      14    5fxy2             0.040000       0.000206
                                                         0.097098       0.003380
                                                         0.283960      -0.211507
                                                         0.806764       0.001943
                                                         2.441624       0.000000
                                                         6.739673       0.000000
                                                        34.417212       0.000000
                          1      14    5fxyz             0.040000       0.000357
                                                         0.097098       0.005854
                                                         0.283960      -0.366341
                                                         0.806764       0.003365
                                                         2.441624       0.000000
                                                         6.739673       0.000000
                                                        34.417212       0.000000
                          1      14    5fxz2             0.040000       0.000206
                                                         0.097098       0.003380
                                                         0.283960      -0.211507
                                                         0.806764       0.001943
                                                         2.441624       0.000000
                                                         6.739673       0.000000
                                                        34.417212       0.000000
                          1      14    5fy3              0.040000       0.000092
                                                         0.097098       0.001511
                                                         0.283960      -0.094589
                                                         0.806764       0.000869
                                                         2.441624       0.000000
                                                         6.739673       0.000000
                                                        34.417212       0.000000
                          1      14    5fy2z             0.040000       0.000206
                                                         0.097098       0.003380
                                                         0.283960      -0.211507
                                                         0.806764       0.001943
                                                         2.441624       0.000000
                                                         6.739673       0.000000
                                                        34.417212       0.000000
                          1      14    5fyz2             0.040000       0.000206
                                                         0.097098       0.003380
                                                         0.283960      -0.211507
                                                         0.806764       0.001943
                                                         2.441624       0.000000
                                                         6.739673       0.000000
                                                        34.417212       0.000000
                          1      14    5fz3              0.040000       0.000092
                                                         0.097098       0.001511
                                                         0.283960      -0.094589
                                                         0.806764       0.000869
                                                         2.441624       0.000000
                                                         6.739673       0.000000
                                                        34.417212       0.000000

                          1      15    5gx4              0.040000       0.000014
                                                         0.097098       0.001608
                                                         0.283960       0.004604
                                                         0.806764      -0.003474
                                                         2.441624       0.000000
                                                         6.739673       0.000000
                                                        34.417212       0.000000
                          1      15    5gx3y             0.040000       0.000036
                                                         0.097098       0.004255
                                                         0.283960       0.012180
                                                         0.806764      -0.009191
                                                         2.441624       0.000000
                                                         6.739673       0.000000
                                                        34.417212       0.000000
                          1      15    5gx3z             0.040000       0.000036
                                                         0.097098       0.004255
                                                         0.283960       0.012180
                                                         0.806764      -0.009191
                                                         2.441624       0.000000
                                                         6.739673       0.000000
                                                        34.417212       0.000000
                          1      15    5gx2y2            0.040000       0.000046
                                                         0.097098       0.005493
                                                         0.283960       0.015725
                                                         0.806764      -0.011865
                                                         2.441624       0.000000
                                                         6.739673       0.000000
                                                        34.417212       0.000000
                          1      15    5gx2yz            0.040000       0.000080
                                                         0.097098       0.009514
                                                         0.283960       0.027236
                                                         0.806764      -0.020551
                                                         2.441624       0.000000
                                                         6.739673       0.000000
                                                        34.417212       0.000000
                          1      15    5gx2z2            0.040000       0.000046
                                                         0.097098       0.005493
                                                         0.283960       0.015725
                                                         0.806764      -0.011865
                                                         2.441624       0.000000
                                                         6.739673       0.000000
                                                        34.417212       0.000000
                          1      15    5gxy3             0.040000       0.000036
                                                         0.097098       0.004255
                                                         0.283960       0.012180
                                                         0.806764      -0.009191
                                                         2.441624       0.000000
                                                         6.739673       0.000000
                                                        34.417212       0.000000
                          1      15    5gxy2z            0.040000       0.000080
                                                         0.097098       0.009514
                                                         0.283960       0.027236
                                                         0.806764      -0.020551
                                                         2.441624       0.000000
                                                         6.739673       0.000000
                                                        34.417212       0.000000
                          1      15    5gxyz2            0.040000       0.000080
                                                         0.097098       0.009514
                                                         0.283960       0.027236
                                                         0.806764      -0.020551
                                                         2.441624       0.000000
                                                         6.739673       0.000000
                                                        34.417212       0.000000
                          1      15    5gxz3             0.040000       0.000036
                                                         0.097098       0.004255
                                                         0.283960       0.012180
                                                         0.806764      -0.009191
                                                         2.441624       0.000000
                                                         6.739673       0.000000
                                                        34.417212       0.000000
                          1      15    5gy4              0.040000       0.000014
                                                         0.097098       0.001608
                                                         0.283960       0.004604
                                                         0.806764      -0.003474
                                                         2.441624       0.000000
                                                         6.739673       0.000000
                                                        34.417212       0.000000
                          1      15    5gy3z             0.040000       0.000036
                                                         0.097098       0.004255
                                                         0.283960       0.012180
                                                         0.806764      -0.009191
                                                         2.441624       0.000000
                                                         6.739673       0.000000
                                                        34.417212       0.000000
                          1      15    5gy2z2            0.040000       0.000046
                                                         0.097098       0.005493
                                                         0.283960       0.015725
                                                         0.806764      -0.011865
                                                         2.441624       0.000000
                                                         6.739673       0.000000
                                                        34.417212       0.000000
                          1      15    5gyz3             0.040000       0.000036
                                                         0.097098       0.004255
                                                         0.283960       0.012180
                                                         0.806764      -0.009191
                                                         2.441624       0.000000
                                                         6.739673       0.000000
                                                        34.417212       0.000000
                          1      15    5gz4              0.040000       0.000014
                                                         0.097098       0.001608
                                                         0.283960       0.004604
                                                         0.806764      -0.003474
                                                         2.441624       0.000000
                                                         6.739673       0.000000
                                                        34.417212       0.000000

                          2       1    1s            13575.369584       0.323227
                                                      2035.237517       2.062509
                                                       463.111112       2.210797
                                                       131.318553       4.954487
                                                        42.899593       1.730189
                                                        15.855102       4.257999

     RI Auxiliary Basis Set             RI_aug-TZVP-MOLOPT-ae_N_RI_094_s_p_d_f_g

       Number of orbital shell sets:                                          24
       Number of orbital shells:                                              24
       Number of primitive Cartesian functions:                               24
       Number of Cartesian basis functions:                                  121
       Number of spherical basis functions:                                   94
       Norm type:                                                              2

       Normalised Cartesian orbitals:

                        Set   Shell   Orbital            Exponent    Coefficient

                          1       1    1s                0.182375       0.198900

                          2       1   14dx2              0.216126       0.112758
                          2       1   14dxy              0.216126       0.195303
                          2       1   14dxz              0.216126       0.195303
                          2       1   14dy2              0.216126       0.112758
                          2       1   14dyz              0.216126       0.195303
                          2       1   14dz2              0.216126       0.112758

                          3       1    2s                0.278625       0.273322

                          4       1    8px               0.350543       0.384474
                          4       1    8py               0.350543       0.384474
                          4       1    8pz               0.350543       0.384474

                          5       1   15dx2              0.387364       0.313053
                          5       1   15dxy              0.387364       0.542224
                          5       1   15dxz              0.387364       0.542224
                          5       1   15dy2              0.387364       0.313053
                          5       1   15dyz              0.387364       0.542224
                          5       1   15dz2              0.387364       0.313053

                          6       1    9px               0.492520       0.588125
                          6       1    9py               0.492520       0.588125
                          6       1    9pz               0.492520       0.588125

                          7       1   20fx3              0.530875       0.354149
                          7       1   20fx2y             0.530875       0.791902
                          7       1   20fx2z             0.530875       0.791902
                          7       1   20fxy2             0.530875       0.791902
                          7       1   20fxyz             0.530875       1.371615
                          7       1   20fxz2             0.530875       0.791902
                          7       1   20fy3              0.530875       0.354149
                          7       1   20fy2z             0.530875       0.791902
                          7       1   20fyz2             0.530875       0.791902
                          7       1   20fz3              0.530875       0.354149

                          8       1   23gx4              0.547365       0.212176
                          8       1   23gx3y             0.547365       0.561366
                          8       1   23gx3z             0.547365       0.561366
                          8       1   23gx2y2            0.547365       0.724720
                          8       1   23gx2yz            0.547365       1.255253
                          8       1   23gx2z2            0.547365       0.724720
                          8       1   23gxy3             0.547365       0.561366
                          8       1   23gxy2z            0.547365       1.255253
                          8       1   23gxyz2            0.547365       1.255253
                          8       1   23gxz3             0.547365       0.561366
                          8       1   23gy4              0.547365       0.212176
                          8       1   23gy3z             0.547365       0.561366
                          8       1   23gy2z2            0.547365       0.724720
                          8       1   23gyz3             0.547365       0.561366
                          8       1   23gz4              0.547365       0.212176

                          9       1   16dx2              0.715114       0.915306
                          9       1   16dxy              0.715114       1.585357
                          9       1   16dxz              0.715114       1.585357
                          9       1   16dy2              0.715114       0.915306
                          9       1   16dyz              0.715114       1.585357
                          9       1   16dz2              0.715114       0.915306

                         10       1    3s                0.753344       0.576309

                         11       1   10px               1.063482       1.539405
                         11       1   10py               1.063482       1.539405
                         11       1   10pz               1.063482       1.539405

                         12       1   17dx2              1.313463       2.652409
                         12       1   17dxy              1.313463       4.594108
                         12       1   17dxz              1.313463       4.594108
                         12       1   17dy2              1.313463       2.652409
                         12       1   17dyz              1.313463       4.594108
                         12       1   17dz2              1.313463       2.652409

                         13       1   21fx3              1.320842       2.753398
                         13       1   21fx2y             1.320842       6.156786
                         13       1   21fx2z             1.320842       6.156786
                         13       1   21fxy2             1.320842       6.156786
                         13       1   21fxyz             1.320842      10.663866
                         13       1   21fxz2             1.320842       6.156786
                         13       1   21fy3              1.320842       2.753398
                         13       1   21fy2z             1.320842       6.156786
                         13       1   21fyz2             1.320842       6.156786
                         13       1   21fz3              1.320842       2.753398

                         14       1   24gx4              1.548328       3.703041
                         14       1   24gx3y             1.548328       9.797325
                         14       1   24gx3z             1.548328       9.797325
                         14       1   24gx2y2            1.548328      12.648292
                         14       1   24gx2yz            1.548328      21.907485
                         14       1   24gx2z2            1.548328      12.648292
                         14       1   24gxy3             1.548328       9.797325
                         14       1   24gxy2z            1.548328      21.907485
                         14       1   24gxyz2            1.548328      21.907485
                         14       1   24gxz3             1.548328       9.797325
                         14       1   24gy4              1.548328       3.703041
                         14       1   24gy3z             1.548328       9.797325
                         14       1   24gy2z2            1.548328      12.648292
                         14       1   24gyz3             1.548328       9.797325
                         14       1   24gz4              1.548328       3.703041

                         15       1    4s                2.247219       1.308110

                         16       1   18dx2              2.417521       7.714496
                         16       1   18dxy              2.417521      13.361899
                         16       1   18dxz              2.417521      13.361899
                         16       1   18dy2              2.417521       7.714496
                         16       1   18dyz              2.417521      13.361899
                         16       1   18dz2              2.417521       7.714496

                         17       1   11px               2.682426       4.893278
                         17       1   11py               2.682426       4.893278
                         17       1   11pz               2.682426       4.893278

                         18       1   22fx3              3.882270      31.145644
                         18       1   22fx2y             3.882270      69.643778
                         18       1   22fx2z             3.882270      69.643778
                         18       1   22fxy2             3.882270      69.643778
                         18       1   22fxyz             3.882270     120.626562
                         18       1   22fxz2             3.882270      69.643778
                         18       1   22fy3              3.882270      31.145644
                         18       1   22fy2z             3.882270      69.643778
                         18       1   22fyz2             3.882270      69.643778
                         18       1   22fz3              3.882270      31.145644

                         19       1   19dx2              4.573046      23.537977
                         19       1   19dxy              4.573046      40.768972
                         19       1   19dxz              4.573046      40.768972
                         19       1   19dy2              4.573046      23.537977
                         19       1   19dyz              4.573046      40.768972
                         19       1   19dz2              4.573046      23.537977

                         20       1   12px               6.990933      16.203506
                         20       1   12py               6.990933      16.203506
                         20       1   12pz               6.990933      16.203506

                         21       1    5s                7.163766       3.120801

                         22       1   13px              16.966694      49.083625
                         22       1   13py              16.966694      49.083625
                         22       1   13pz              16.966694      49.083625

                         23       1    6s               24.806664       7.922028

                         24       1    7s               79.332059      18.945088

       Atomic covalent radius [Angstrom]:                                  0.770

       Atomic van der Waals radius [Angstrom]:                             1.700

     The atoms of this atomic kind are PAW atoms (GAPW):
       Hard Gaussian function radius:                                      1.512
       Rho0 radius:                                                        1.512
       Maximum GTO radius used for PAW projector construction:            24.566

     GAPW Soft Basis Set                                 aug-TZVP-MOLOPT-ae_soft

       Number of orbital shell sets:                                           2
       Number of orbital shells:                                              16
       Number of primitive Cartesian functions:                                5
       Number of Cartesian basis functions:                                   71
       Number of spherical basis functions:                                   56
       Norm type:                                                              2

       Normalised Cartesian orbitals:

                        Set   Shell   Orbital            Exponent    Coefficient

                          1       1    1s                0.040000       0.000000
                                                         0.097098       0.019281
                                                         0.283960       0.027513
                                                         0.806764       0.003692
                                                         2.441624       0.446183

                          1       2    2s                0.040000       0.000000
                                                         0.097098       0.029117
                                                         0.283960       0.094997
                                                         0.806764       0.362633
                                                         2.441624      -0.104551

                          1       3    3s                0.040000       0.000000
                                                         0.097098       0.047046
                                                         0.283960       0.169545
                                                         0.806764      -0.252838
                                                         2.441624      -0.199197

                          1       4    4s                0.040000       0.000000
                                                         0.097098       0.188374
                                                         0.283960      -0.341415
                                                         0.806764       0.091223
                                                         2.441624      -0.053941

                          1       5    5s                0.040000       0.099533
                                                         0.097098      -0.167672
                                                         0.283960      -0.126383
                                                         0.806764       0.030074
                                                         2.441624       0.000000

                          1       6    2px               0.040000       0.000000
                                                         0.097098       0.005087
                                                         0.283960       0.032186
                                                         0.806764       0.779023
                                                         2.441624       0.695625
                          1       6    2py               0.040000       0.000000
                                                         0.097098       0.005087
                                                         0.283960       0.032186
                                                         0.806764       0.779023
                                                         2.441624       0.695625
                          1       6    2pz               0.040000       0.000000
                                                         0.097098       0.005087
                                                         0.283960       0.032186
                                                         0.806764       0.779023
                                                         2.441624       0.695625

                          1       7    3px               0.040000       0.000000
                                                         0.097098       0.008084
                                                         0.283960       0.294367
                                                         0.806764      -0.188640
                                                         2.441624       0.912249
                          1       7    3py               0.040000       0.000000
                                                         0.097098       0.008084
                                                         0.283960       0.294367
                                                         0.806764      -0.188640
                                                         2.441624       0.912249
                          1       7    3pz               0.040000       0.000000
                                                         0.097098       0.008084
                                                         0.283960       0.294367
                                                         0.806764      -0.188640
                                                         2.441624       0.912249

                          1       8    4px               0.040000       0.000000
                                                         0.097098       0.081068
                                                         0.283960      -0.017243
                                                         0.806764      -0.070055
                                                         2.441624      -0.855991
                          1       8    4py               0.040000       0.000000
                                                         0.097098       0.081068
                                                         0.283960      -0.017243
                                                         0.806764      -0.070055
                                                         2.441624      -0.855991
                          1       8    4pz               0.040000       0.000000
                                                         0.097098       0.081068
                                                         0.283960      -0.017243
                                                         0.806764      -0.070055
                                                         2.441624      -0.855991

                          1       9    5px               0.040000       0.032085
                                                         0.097098      -0.027366
                                                         0.283960      -0.100343
                                                         0.806764      -0.020266
                                                         2.441624       0.000000
                          1       9    5py               0.040000       0.032085
                                                         0.097098      -0.027366
                                                         0.283960      -0.100343
                                                         0.806764      -0.020266
                                                         2.441624       0.000000
                          1       9    5pz               0.040000       0.032085
                                                         0.097098      -0.027366
                                                         0.283960      -0.100343
                                                         0.806764      -0.020266
                                                         2.441624       0.000000

                          1      10    3dx2              0.040000       0.000000
                                                         0.097098       0.001415
                                                         0.283960       0.015501
                                                         0.806764       0.546922
                                                         2.441624       3.763414
                          1      10    3dxy              0.040000       0.000000
                                                         0.097098       0.002451
                                                         0.283960       0.026849
                                                         0.806764       0.947296
                                                         2.441624       6.518424
                          1      10    3dxz              0.040000       0.000000
                                                         0.097098       0.002451
                                                         0.283960       0.026849
                                                         0.806764       0.947296
                                                         2.441624       6.518424
                          1      10    3dy2              0.040000       0.000000
                                                         0.097098       0.001415
                                                         0.283960       0.015501
                                                         0.806764       0.546922
                                                         2.441624       3.763414
                          1      10    3dyz              0.040000       0.000000
                                                         0.097098       0.002451
                                                         0.283960       0.026849
                                                         0.806764       0.947296
                                                         2.441624       6.518424
                          1      10    3dz2              0.040000       0.000000
                                                         0.097098       0.001415
                                                         0.283960       0.015501
                                                         0.806764       0.546922
                                                         2.441624       3.763414

                          1      11    4dx2              0.040000       0.000000
                                                         0.097098       0.001225
                                                         0.283960       0.139703
                                                         0.806764       0.323683
                                                         2.441624      -2.510108
                          1      11    4dxy              0.040000       0.000000
                                                         0.097098       0.002122
                                                         0.283960       0.241972
                                                         0.806764       0.560636
                                                         2.441624      -4.347634
                          1      11    4dxz              0.040000       0.000000
                                                         0.097098       0.002122
                                                         0.283960       0.241972
                                                         0.806764       0.560636
                                                         2.441624      -4.347634
                          1      11    4dy2              0.040000       0.000000
                                                         0.097098       0.001225
                                                         0.283960       0.139703
                                                         0.806764       0.323683
                                                         2.441624      -2.510108
                          1      11    4dyz              0.040000       0.000000
                                                         0.097098       0.002122
                                                         0.283960       0.241972
                                                         0.806764       0.560636
                                                         2.441624      -4.347634
                          1      11    4dz2              0.040000       0.000000
                                                         0.097098       0.001225
                                                         0.283960       0.139703
                                                         0.806764       0.323683
                                                         2.441624      -2.510108

                          1      12    5dx2              0.040000       0.006049
                                                         0.097098      -0.003128
                                                         0.283960       0.033814
                                                         0.806764       0.003338
[...]
   418 Broy./Diag. 0.10E+00    6.0     0.02929050       -75.6545496136  3.03E-02
   419 Broy./Diag. 0.10E+00    6.1     0.02585740       -75.6233535497  3.12E-02
   420 Broy./Diag. 0.10E+00    6.1     0.01949810       -75.6229048901  4.49E-04
   421 Broy./Diag. 0.10E+00    6.0     0.00541938       -75.6486663785 -2.58E-02
   422 Broy./Diag. 0.10E+00    5.9     0.01789616       -75.6290906552  1.96E-02
   423 Broy./Diag. 0.10E+00    5.9     0.03672146       -75.5733176467  5.58E-02
   424 Broy./Diag. 0.10E+00    5.9     0.03729000       -75.5391520585  3.42E-02
   425 Broy./Diag. 0.10E+00    6.1     0.02390776       -75.5589802527 -1.98E-02
   426 Broy./Diag. 0.10E+00    5.8     0.01793584       -75.6231843145 -6.42E-02
   427 Broy./Diag. 0.10E+00    5.8     0.02070395       -75.6948456988 -7.17E-02
   428 Broy./Diag. 0.10E+00    5.9     0.03602892       -75.7415207446 -4.67E-02
   429 Broy./Diag. 0.10E+00    5.8     0.04696999       -75.7564327219 -1.49E-02
   430 Broy./Diag. 0.10E+00    5.9     0.04867238       -75.7684616225 -1.20E-02
   431 Broy./Diag. 0.10E+00    6.0     0.04979137       -75.7881970347 -1.97E-02
   432 Broy./Diag. 0.10E+00    6.0     0.04877088       -75.8172914331 -2.91E-02
   433 Broy./Diag. 0.10E+00    6.0     0.02560757       -75.8200680005 -2.78E-03
   434 Broy./Diag. 0.10E+00    5.9     0.02367762       -75.8304551351 -1.04E-02
   435 Broy./Diag. 0.10E+00    5.7     0.01808076       -75.8444343438 -1.40E-02
   436 Broy./Diag. 0.10E+00    5.8     0.02285739       -75.8588839093 -1.44E-02
   437 Broy./Diag. 0.10E+00    5.9     0.02455574       -75.8676399545 -8.76E-03
   438 Broy./Diag. 0.10E+00    5.9     0.02384944       -75.8591390901  8.50E-03
   439 Broy./Diag. 0.10E+00    5.9     0.01921409       -75.8651010877 -5.96E-03
   440 Broy./Diag. 0.10E+00    5.9     0.01001093       -75.8638117375  1.29E-03
   441 Broy./Diag. 0.10E+00    5.8     0.00857660       -75.8494241596  1.44E-02
   442 Broy./Diag. 0.10E+00    5.9     0.00858275       -75.8302755548  1.91E-02
   443 Broy./Diag. 0.10E+00    6.0     0.00987384       -75.8197689564  1.05E-02
   444 Broy./Diag. 0.10E+00    6.0     0.00936282       -75.8015011176  1.83E-02
   445 Broy./Diag. 0.10E+00    6.1     0.01078330       -75.7818290480  1.97E-02
   446 Broy./Diag. 0.10E+00    6.0     0.00738323       -75.7774882643  4.34E-03
   447 Broy./Diag. 0.10E+00    6.1     0.00737277       -75.7728245316  4.66E-03
   448 Broy./Diag. 0.10E+00    6.1     0.01095055       -75.7798540922 -7.03E-03
   449 Broy./Diag. 0.10E+00    5.9     0.01674877       -75.7865110617 -6.66E-03
   450 Broy./Diag. 0.10E+00    6.0     0.01554329       -75.7972785357 -1.08E-02
   451 Broy./Diag. 0.10E+00    5.9     0.01877112       -75.8071066317 -9.83E-03
   452 Broy./Diag. 0.10E+00    6.0     0.01938550       -75.8206072448 -1.35E-02
   453 Broy./Diag. 0.10E+00    6.0     0.01959077       -75.8287622948 -8.16E-03
   454 Broy./Diag. 0.10E+00    5.9     0.01377945       -75.8322242722 -3.46E-03
   455 Broy./Diag. 0.10E+00    5.9     0.00919536       -75.8292439791  2.98E-03
   456 Broy./Diag. 0.10E+00    5.8     0.01187337       -75.8205958152  8.65E-03
   457 Broy./Diag. 0.10E+00    6.1     0.01262808       -75.8148441892  5.75E-03
   458 Broy./Diag. 0.10E+00    6.1     0.00975931       -75.8151242496 -2.80E-04
   459 Broy./Diag. 0.10E+00    6.1     0.01487313       -75.8086604662  6.46E-03
   460 Broy./Diag. 0.10E+00    6.0     0.01529418       -75.8071030360  1.56E-03
   461 Broy./Diag. 0.10E+00    6.1     0.01872420       -75.8061777787  9.25E-04
   462 Broy./Diag. 0.10E+00    6.0     0.01481160       -75.8030429814  3.13E-03
   463 Broy./Diag. 0.10E+00    6.0     0.00770878       -75.8024200924  6.23E-04
   464 Broy./Diag. 0.10E+00    5.8     0.00628435       -75.8027923297 -3.72E-04
   465 Broy./Diag. 0.10E+00    5.8     0.00590097       -75.8013476166  1.44E-03
   466 Broy./Diag. 0.10E+00    6.0     0.00740985       -75.8025379706 -1.19E-03
   467 Broy./Diag. 0.10E+00    5.9     0.01627891       -75.7922107007  1.03E-02
   468 Broy./Diag. 0.10E+00    6.0     0.01837920       -75.7792168021  1.30E-02
   469 Broy./Diag. 0.10E+00    5.8     0.01816572       -75.7662983363  1.29E-02
   470 Broy./Diag. 0.10E+00    5.9     0.02264921       -75.7597901631  6.51E-03
   471 Broy./Diag. 0.10E+00    5.9     0.02287214       -75.7540599687  5.73E-03
   472 Broy./Diag. 0.10E+00    5.9     0.02222059       -75.7518324531  2.23E-03
   473 Broy./Diag. 0.10E+00    6.1     0.01907105       -75.7436208480  8.21E-03
   474 Broy./Diag. 0.10E+00    6.0     0.01686458       -75.7374449756  6.18E-03
   475 Broy./Diag. 0.10E+00    6.0     0.01703185       -75.7288473149  8.60E-03
   476 Broy./Diag. 0.10E+00    6.0     0.01770319       -75.7136812184  1.52E-02
   477 Broy./Diag. 0.10E+00    5.8     0.02349296       -75.6932475082  2.04E-02
   478 Broy./Diag. 0.10E+00    5.8     0.02625662       -75.6849059080  8.34E-03
   479 Broy./Diag. 0.10E+00    5.9     0.02477707       -75.6761333040  8.77E-03
   480 Broy./Diag. 0.10E+00    5.9     0.02729414       -75.6595346841  1.66E-02
   481 Broy./Diag. 0.10E+00    5.8     0.02969918       -75.6388250489  2.07E-02
   482 Broy./Diag. 0.10E+00    6.0     0.03130246       -75.6133095822  2.55E-02
   483 Broy./Diag. 0.10E+00    6.0     0.03630687       -75.6336604747 -2.04E-02
   484 Broy./Diag. 0.10E+00    6.2     0.01682470       -75.6484887014 -1.48E-02
   485 Broy./Diag. 0.10E+00    6.0     0.01408033       -75.6777341519 -2.92E-02
   486 Broy./Diag. 0.10E+00    6.1     0.01175289       -75.7004578034 -2.27E-02
   487 Broy./Diag. 0.10E+00    6.0     0.02714723       -75.7111467250 -1.07E-02
   488 Broy./Diag. 0.10E+00    6.0     0.02063126       -75.7175363084 -6.39E-03
   489 Broy./Diag. 0.10E+00    6.0     0.02984648       -75.7484459640 -3.09E-02
   490 Broy./Diag. 0.10E+00    5.9     0.03296986       -75.7651107128 -1.67E-02
   491 Broy./Diag. 0.10E+00    5.9     0.05916144       -75.7203286797  4.48E-02
   492 Broy./Diag. 0.10E+00    5.8     0.06557159       -75.7371692249 -1.68E-02
   493 Broy./Diag. 0.10E+00    5.8     0.05144180       -75.7825684611 -4.54E-02
   494 Broy./Diag. 0.10E+00    5.8     0.02612260       -75.7934506942 -1.09E-02
   495 Broy./Diag. 0.10E+00    5.9     0.02037075       -75.8010216660 -7.57E-03
   496 Broy./Diag. 0.10E+00    6.1     0.02629250       -75.8217573209 -2.07E-02
   497 Broy./Diag. 0.10E+00    6.1     0.02002693       -75.7771984544  4.46E-02
   498 Broy./Diag. 0.10E+00    6.1     0.03240396       -75.8094766778 -3.23E-02
   499 Broy./Diag. 0.10E+00    6.0     0.02956184       -75.7976734271  1.18E-02
   500 Broy./Diag. 0.10E+00    6.0     0.02971426       -75.7770422139  2.06E-02

  Leaving inner SCF loop after reaching   500 steps.


  Electronic density on regular grids:         -8.2341234596        3.7658765404
  Core density on regular grids:               12.0000000000        0.0000000000
  Hard and soft densities (Lebedev):          -98.5496306761      -94.7842605003
  Total Rho_soft + Rho1_hard - Rho1_soft      -11.9994936355
  Total charge density (r-space):               0.0005063645
  Total Rho_soft + Rho0_soft (g-space):         0.0005062903

  Overlap energy of the core charge distribution:               0.00003125550742
  Self energy of the core charge distribution:                -58.22549323810243
  Core Hamiltonian energy:                                    -15.14664243590131
  Hartree energy:                                              16.69466081913580
  Exchange-correlation energy:                                 -2.59507696291084
  Hartree-Fock Exchange energy:                                -2.52201899959177

  GAPW| Exc from hard and soft atomic rho1:                    -5.39184188055296
  GAPW| local Eh = 1 center integrals:                         -8.59066077152772

  Total energy:                                               -75.77704221394383

 *******************************************************************************
 *   ___                                                                       *
 *  /   \                                                                      *
 * [ABORT]                                                                     *
 *  \___/     SCF run NOT converged. To continue the calculation regardless,   *
 *    |             please set the keyword IGNORE_CONVERGENCE_FAILURE.         *
 *  O/|                                                                        *
 * /| |                                                                        *
 * / \                                                            qs_scf.F:611 *
 *******************************************************************************


 ===== Routine Calling Stack ===== 

            3 scf_env_do_scf
            2 qs_energies
            1 CP2K

 *******************************************************************************
 *   ___                                                                       *
 *  /   \                                                                      *
 * [ABORT]                                                                     *
 *  \___/     SCF run NOT converged. To continue the calculation regardless,   *
 *    |             please set the keyword IGNORE_CONVERGENCE_FAILURE.         *
 *  O/|                                                                        *
 * /| |                                                                        *
 * / \                                                            qs_scf.F:611 *
 *******************************************************************************


 ===== Routine Calling Stack ===== 

            3 scf_env_do_scf
            2 qs_energies
            1 CP2K

 *******************************************************************************
 *   ___                                                                       *
 *  /   \                                                                      *
 * [ABORT]                                                                     *
 *  \___/     SCF run NOT converged. To continue the calculation regardless,   *
 *    |             please set the keyword IGNORE_CONVERGENCE_FAILURE.         *
 *  O/|                                                                        *
 * /| |                                                                        *
 * / \                                                            qs_scf.F:611 *
 *******************************************************************************


 ===== Routine Calling Stack ===== 

            3 scf_env_do_scf
            2 qs_energies
            1 CP2K

 *******************************************************************************
 *   ___                                                                       *
 *  /   \                                                                      *
 * [ABORT]                                                                     *
 *  \___/     SCF run NOT converged. To continue the calculation regardless,   *
 *    |             please set the keyword IGNORE_CONVERGENCE_FAILURE.         *
 *  O/|                                                                        *
 * /| |                                                                        *
 * / \                                                            qs_scf.F:611 *
 *******************************************************************************


 ===== Routine Calling Stack ===== 

            3 scf_env_do_scf
            2 qs_energies
            1 CP2K

 *******************************************************************************
 *   ___                                                                       *
 *  /   \                                                                      *
 * [ABORT]                                                                     *
 *  \___/     SCF run NOT converged. To continue the calculation regardless,   *
 *    |             please set the keyword IGNORE_CONVERGENCE_FAILURE.         *
 *  O/|                                                                        *
 * /| |                                                                        *
 * / \                                                            qs_scf.F:611 *
 *******************************************************************************


 ===== Routine Calling Stack ===== 

            3 scf_env_do_scf
            2 qs_energies
            1 CP2K

 *******************************************************************************
 *   ___                                                                       *
 *  /   \                                                                      *
 * [ABORT]                                                                     *
 *  \___/     SCF run NOT converged. To continue the calculation regardless,   *
 *    |             please set the keyword IGNORE_CONVERGENCE_FAILURE.         *
 *  O/|                                                                        *
 * /| |                                                                        *
 * / \                                                            qs_scf.F:611 *
 *******************************************************************************


 ===== Routine Calling Stack ===== 

            3 scf_env_do_scf
            2 qs_energies
            1 CP2K

 *******************************************************************************
 *   ___                                                                       *
 *  /   \                                                                      *
 * [ABORT]                                                                     *
 *  \___/     SCF run NOT converged. To continue the calculation regardless,   *
 *    |             please set the keyword IGNORE_CONVERGENCE_FAILURE.         *
 *  O/|                                                                        *
 * /| |                                                                        *
 * / \                                                            qs_scf.F:611 *
 *******************************************************************************


 ===== Routine Calling Stack ===== 

            3 scf_env_do_scf
            2 qs_energies
            1 CP2K

 *******************************************************************************
 *   ___                                                                       *
 *  /   \                                                                      *
 * [ABORT]                                                                     *
 *  \___/     SCF run NOT converged. To continue the calculation regardless,   *
 *    |             please set the keyword IGNORE_CONVERGENCE_FAILURE.         *
 *  O/|                                                                        *
 * /| |                                                                        *
 * / \                                                            qs_scf.F:611 *
 *******************************************************************************


 ===== Routine Calling Stack ===== 

            3 scf_env_do_scf
            2 qs_energies
            1 CP2K

 *******************************************************************************
 *   ___                                                                       *
 *  /   \                                                                      *
 * [ABORT]                                                                     *
 *  \___/     SCF run NOT converged. To continue the calculation regardless,   *
 *    |             please set the keyword IGNORE_CONVERGENCE_FAILURE.         *
 *  O/|                                                                        *
 * /| |                                                                        *
 * / \                                                            qs_scf.F:611 *
 *******************************************************************************


 ===== Routine Calling Stack ===== 

            3 scf_env_do_scf
            2 qs_energies
            1 CP2K

 *******************************************************************************
 *   ___                                                                       *
 *  /   \                                                                      *
 * [ABORT]                                                                     *
 *  \___/     SCF run NOT converged. To continue the calculation regardless,   *
 *    |             please set the keyword IGNORE_CONVERGENCE_FAILURE.         *
 *  O/|                                                                        *
 * /| |                                                                        *
 * / \                                                            qs_scf.F:611 *
 *******************************************************************************


 ===== Routine Calling Stack ===== 

            3 scf_env_do_scf
            2 qs_energies
            1 CP2K

 *******************************************************************************
 *   ___                                                                       *
 *  /   \                                                                      *
 * [ABORT]                                                                     *
 *  \___/     SCF run NOT converged. To continue the calculation regardless,   *
 *    |             please set the keyword IGNORE_CONVERGENCE_FAILURE.         *
 *  O/|                                                                        *
 * /| |                                                                        *
 * / \                                                            qs_scf.F:611 *
 *******************************************************************************


 ===== Routine Calling Stack ===== 

            3 scf_env_do_scf
            2 qs_energies
            1 CP2K

 *******************************************************************************
 *   ___                                                                       *
 *  /   \                                                                      *
 * [ABORT]                                                                     *
 *  \___/     SCF run NOT converged. To continue the calculation regardless,   *
 *    |             please set the keyword IGNORE_CONVERGENCE_FAILURE.         *
 *  O/|                                                                        *
 * /| |                                                                        *
 * / \                                                            qs_scf.F:611 *
 *******************************************************************************


 ===== Routine Calling Stack ===== 

            3 scf_env_do_scf
            2 qs_energies
            1 CP2K

 *******************************************************************************
 *   ___                                                                       *
 *  /   \                                                                      *
 * [ABORT]                                                                     *
 *  \___/     SCF run NOT converged. To continue the calculation regardless,   *
 *    |             please set the keyword IGNORE_CONVERGENCE_FAILURE.         *
 *  O/|                                                                        *
 * /| |                                                                        *
 * / \                                                            qs_scf.F:611 *
 *******************************************************************************


 ===== Routine Calling Stack ===== 

            3 scf_env_do_scf
            2 qs_energies
            1 CP2K
