 DBCSR| CPU Multiplication driver                                           BLAS (U)
 DBCSR| Multrec recursion limit                                              512 (U)
 DBCSR| Multiplication stack size                                           1000 (D)
 DBCSR| Maximum elements for images                                    UNLIMITED (U)
 DBCSR| Multiplicative factor virtual images                                   1 (U)
 DBCSR| Use multiplication densification                                       T (D)
 DBCSR| Multiplication size stacks                                             3 (U)
 DBCSR| Use memory pool for CPU allocation                                     F (U)
 DBCSR| Number of 3D layers                                               SINGLE (U)
 DBCSR| Use MPI memory allocation                                              F (U)
 DBCSR| Use RMA algorithm                                                      F (U)
 DBCSR| Use Communication thread                                               T (U)
 DBCSR| Communication thread load                                             75 (D)
 DBCSR| MPI: My process id                                                     0
 DBCSR| MPI: Number of processes                                              24
 DBCSR| OMP: Current number of threads                                         4
 DBCSR| OMP: Max number of threads                                             4
 DBCSR| Split modifier for TAS multiplication algorithm                  1.0E+00 (U)


  **** **** ******  **  PROGRAM STARTED AT               2025-02-28 01:59:31.325
 ***** ** ***  *** **   PROGRAM STARTED ON                          i03r11c06s04
 **    ****   ******    PROGRAM STARTED BY                               di38fab
 ***** **    ** ** **   PROGRAM PROCESS ID                                897351
  **** **  *******  **  PROGRAM STARTED IN /hppfs/scratch/04/di38fab/05_MOL/W4-1
                                           1+ALK/c2/TZVP

 CP2K| version string:                 CP2K version 2025.1 (Development Version)
 CP2K| source code revision number:                                  git:47877ba
 CP2K| cp2kflags: omp libint fftw3 libxc parallel scalapack max_contr=4         
 CP2K| is freely available from                            https://www.cp2k.org/
 CP2K| Program compiled at                          Thu Feb 20 16:00:34 CET 2025
 CP2K| Program compiled on                                               login04
 CP2K| Program compiled for                                        Supermuc-foss
 CP2K| Data directory path          /hppfs/work/pn36zo/di38fab/newcp2k/cp2k/data
 CP2K| Input file name                                                    GW.inp

 GLOBAL| Force Environment number                                              1
 GLOBAL| Basis set file name            /hppfs/scratch/04/di38fab/04_TMD/BASIS_A
 GLOBAL| Potential file name            /hppfs/work/pn36zo/di38fab/cp2k/data/ALL
 GLOBAL| MM Potential file name                                     MM_POTENTIAL
 GLOBAL| Coordinate file name                                      __STD_INPUT__
 GLOBAL| Method name                                                        CP2K
 GLOBAL| Project name                                                       MoS2
 GLOBAL| Run type                                                         ENERGY
 GLOBAL| FFT library                                                       FFTW3
 GLOBAL| Diagonalization library                                       ScaLAPACK
 GLOBAL| DGEMM library                                                      BLAS
 GLOBAL| Orthonormality check for eigenvectors                          DISABLED
 GLOBAL| Matrix multiplication library                                 ScaLAPACK
 GLOBAL| All-to-all communication in single precision                          F
 GLOBAL| FFTs using library dependent lengths                                  F
 GLOBAL| Grid backend                                                       AUTO
 GLOBAL| Global print level                                               MEDIUM
 GLOBAL| MPI I/O enabled                                                       T
 GLOBAL| Total number of message passing processes                            24
 GLOBAL| Number of threads for this process                                    4
 GLOBAL| This output is from process                                           0
 GLOBAL| OpenMP stack size per thread (OMP_STACKSIZE)                    default
 GLOBAL| CPU model name             Intel(R) Xeon(R) Platinum 8174 CPU @ 3.10GHz

 MEMORY| system memory details [Kb]
 MEMORY|                        rank 0           min           max       average
 MEMORY| MemTotal             98436664      98436660      98436664      98436662
 MEMORY| MemFree              83859880      83859880      83935864      83897872
 MEMORY| Buffers                     0             0             0             0
 MEMORY| Cached                2418740       2418728       2418740       2418734
 MEMORY| Slab                  1252224       1251900       1252224       1252062
 MEMORY| SReclaimable           274400        274084        274400        274242
 MEMORY| MemLikelyFree        86553020      86553020      86628676      86590848


 *** Fundamental physical constants (SI units) ***

 *** Literature: B. J. Mohr and B. N. Taylor,
 ***             CODATA recommended values of the fundamental physical
 ***             constants: 2006, Web Version 5.1
 ***             http://physics.nist.gov/constants

 Speed of light in vacuum [m/s]                             2.99792458000000E+08
 Magnetic constant or permeability of vacuum [N/A**2]       1.25663706143592E-06
 Electric constant or permittivity of vacuum [F/m]          8.85418781762039E-12
 Planck constant (h) [J*s]                                  6.62606896000000E-34
 Planck constant (h-bar) [J*s]                              1.05457162825177E-34
 Elementary charge [C]                                      1.60217648700000E-19
 Electron mass [kg]                                         9.10938215000000E-31
 Electron g factor [ ]                                     -2.00231930436220E+00
 Proton mass [kg]                                           1.67262163700000E-27
 Fine-structure constant                                    7.29735253760000E-03
 Rydberg constant [1/m]                                     1.09737315685270E+07
 Avogadro constant [1/mol]                                  6.02214179000000E+23
 Boltzmann constant [J/K]                                   1.38065040000000E-23
 Atomic mass unit [kg]                                      1.66053878200000E-27
 Bohr radius [m]                                            5.29177208590000E-11

 *** Conversion factors ***

 [u] -> [a.u.]                                              1.82288848426455E+03
 [Angstrom] -> [Bohr] = [a.u.]                              1.88972613288564E+00
 [a.u.] = [Bohr] -> [Angstrom]                              5.29177208590000E-01
 [a.u.] -> [s]                                              2.41888432650478E-17
 [a.u.] -> [fs]                                             2.41888432650478E-02
 [a.u.] -> [J]                                              4.35974393937059E-18
 [a.u.] -> [N]                                              8.23872205491840E-08
 [a.u.] -> [K]                                              3.15774647902944E+05
 [a.u.] -> [kJ/mol]                                         2.62549961709828E+03
 [a.u.] -> [kcal/mol]                                       6.27509468713739E+02
 [a.u.] -> [Pa]                                             2.94210107994716E+13
 [a.u.] -> [bar]                                            2.94210107994716E+08
 [a.u.] -> [atm]                                            2.90362800883016E+08
 [a.u.] -> [eV]                                             2.72113838565563E+01
 [a.u.] -> [Hz]                                             6.57968392072181E+15
 [a.u.] -> [1/cm] (wave numbers)                            2.19474631370540E+05
 [a.u./Bohr**2] -> [1/cm]                                   5.14048714338585E+03
 

 CELL_TOP| Volume [angstrom^3]:                                     27000.000000
 CELL_TOP| Vector a [angstrom    30.000     0.000     0.000   |a| =    30.000000
 CELL_TOP| Vector b [angstrom     0.000    30.000     0.000   |b| =    30.000000
 CELL_TOP| Vector c [angstrom     0.000     0.000    30.000   |c| =    30.000000
 CELL_TOP| Angle (b,c), alpha [degree]:                                90.000000
 CELL_TOP| Angle (a,c), beta  [degree]:                                90.000000
 CELL_TOP| Angle (a,b), gamma [degree]:                                90.000000
 CELL_TOP| Numerically orthorhombic:                                         YES
 CELL_TOP| Periodicity                                                      NONE

 GENERATE|  Preliminary Number of Bonds generated:                             0
 GENERATE|  Achieved consistency in connectivity generation.

 CELL| Volume [angstrom^3]:                                         27000.000000
 CELL| Vector a [angstrom]:      30.000     0.000     0.000   |a| =    30.000000
 CELL| Vector b [angstrom]:       0.000    30.000     0.000   |b| =    30.000000
 CELL| Vector c [angstrom]:       0.000     0.000    30.000   |c| =    30.000000
 CELL| Angle (b,c), alpha [degree]:                                    90.000000
 CELL| Angle (a,c), beta  [degree]:                                    90.000000
 CELL| Angle (a,b), gamma [degree]:                                    90.000000
 CELL| Numerically orthorhombic:                                             YES
 CELL| Periodicity                                                          NONE

 CELL_REF| Volume [angstrom^3]:                                     27000.000000
 CELL_REF| Vector a [angstrom    30.000     0.000     0.000   |a| =    30.000000
 CELL_REF| Vector b [angstrom     0.000    30.000     0.000   |b| =    30.000000
 CELL_REF| Vector c [angstrom     0.000     0.000    30.000   |c| =    30.000000
 CELL_REF| Angle (b,c), alpha [degree]:                                90.000000
 CELL_REF| Angle (a,c), beta  [degree]:                                90.000000
 CELL_REF| Angle (a,b), gamma [degree]:                                90.000000
 CELL_REF| Numerically orthorhombic:                                         YES
 CELL_REF| Periodicity                                                      NONE

 *******************************************************************************
 *******************************************************************************
 **                                                                           **
 **     #####                         ##              ##                      **
 **    ##   ##            ##          ##              ##                      **
 **   ##     ##                       ##            ######                    **
 **   ##     ##  ##   ##  ##   #####  ##  ##   ####   ##    #####    #####    **
 **   ##     ##  ##   ##  ##  ##      ## ##   ##      ##   ##   ##  ##   ##   **
 **   ##  ## ##  ##   ##  ##  ##      ####     ###    ##   ######   ######    **
 **    ##  ###   ##   ##  ##  ##      ## ##      ##   ##   ##       ##        **
 **     #######   #####   ##   #####  ##  ##  ####    ##    #####   ##        **
 **           ##                                                    ##        **
 **                                                                           **
 **                                                ... make the atoms dance   **
 **                                                                           **
 **            Copyright (C) by CP2K developers group (2000-2025)             **
 **                      J. Chem. Phys. 152, 194103 (2020)                    **
 **                                                                           **
 *******************************************************************************

 DFT| Spin restricted Kohn-Sham (RKS) calculation                            RKS
 DFT| Multiplicity                                                             1
 DFT| Number of spin states                                                    1
 DFT| Charge                                                                   0
 DFT| Self-interaction correction (SIC)                                       NO
 DFT| Cutoffs: density                                              1.000000E-10
 DFT|          gradient                                             1.000000E-10
 DFT|          tau                                                  1.000000E-10
 DFT|          cutoff_smoothing_range                               0.000000E+00
 DFT| XC density smoothing                                                  NONE
 DFT| XC derivatives                                                          PW

 FUNCTIONAL| PBE:
 FUNCTIONAL| J.P.Perdew, K.Burke, M.Ernzerhof, Phys. Rev. Letter, vol. 77, n 18,
 FUNCTIONAL|  pp. 3865-3868, (1996)sx=0.750sc=1.000{spin unpolarized}           


 QS| Method:                                                                GAPW
 QS| Density plane wave grid type                        NON-SPHERICAL FULLSPACE
 QS| Number of grid levels:                                                    4
 QS| Density cutoff [a.u.]:                                                250.0
 QS| Multi grid cutoff [a.u.]: 1) grid level                               250.0
 QS|                           2) grid level                                83.3
 QS|                           3) grid level                                27.8
 QS|                           4) grid level                                 9.3
 QS| Grid level progression factor:                                          3.0
 QS| Relative density cutoff [a.u.]:                                        50.0
 QS| Interaction thresholds: eps_pgf_orb:                                1.0E-12
 QS|                         eps_filter_matrix:                          0.0E+00
 QS|                         eps_core_charge:                            1.0E-14
 QS|                         eps_rho_gspace:                             1.0E-12
 QS|                         eps_rho_rspace:                             1.0E-12
 QS|                         eps_gvg_rspace:                             1.0E-06
 QS|                         eps_ppl:                                    1.0E-02
 QS|                         eps_ppnl:                                   1.0E-08
 QS| GAPW|      One center basis from orbital basis primitives
 QS| GAPW|                   eps_fit:                                    1.0E-04
 QS| GAPW|                   eps_iso:                                    1.0E-12
 QS| GAPW|                   eps_svd:                                    1.0E-08
 QS| GAPW|                   eps_cpc:                                    1.0E-12
 QS| GAPW|   atom-r-grid: quadrature:                                     GC_LOG
 QS| GAPW|      atom-s-grid:  max l :                                          8
 QS| GAPW|      max_l_rho0 :                                                   2


 ATOMIC KIND INFORMATION

  1. Atomic kind: C                                     Number of atoms:       2

     Orbital Basis Set                                        aug-TZVP-MOLOPT-ae

       Number of orbital shell sets:                                           2
       Number of orbital shells:                                              16
       Number of primitive Cartesian functions:                               13
       Number of Cartesian basis functions:                                   71
       Number of spherical basis functions:                                   56
       Norm type:                                                              2

       Normalised Cartesian orbitals:

                        Set   Shell   Orbital            Exponent    Coefficient

                          1       1    1s                0.040000       0.000000
                                                         0.097098       0.019281
                                                         0.283960       0.027513
                                                         0.806764       0.003692
                                                         2.441624       0.446183
                                                         6.739673       1.752510
                                                        34.417212       0.637474

                          1       2    2s                0.040000       0.000000
                                                         0.097098       0.029117
                                                         0.283960       0.094997
                                                         0.806764       0.362633
                                                         2.441624      -0.104551
                                                         6.739673      -0.288836
                                                        34.417212       1.102934

                          1       3    3s                0.040000       0.000000
                                                         0.097098       0.047046
                                                         0.283960       0.169545
                                                         0.806764      -0.252838
                                                         2.441624      -0.199197
                                                         6.739673      -0.168746
                                                        34.417212      -6.120053

                          1       4    4s                0.040000       0.000000
                                                         0.097098       0.188374
                                                         0.283960      -0.341415
                                                         0.806764       0.091223
                                                         2.441624      -0.053941
                                                         6.739673      -0.401007
                                                        34.417212      -3.786931

                          1       5    5s                0.040000       0.099533
                                                         0.097098      -0.167672
                                                         0.283960      -0.126383
                                                         0.806764       0.030074
                                                         2.441624       0.000000
                                                         6.739673       0.000000
                                                        34.417212       0.000000

                          1       6    2px               0.040000       0.000000
                                                         0.097098       0.005087
                                                         0.283960       0.032186
                                                         0.806764       0.779023
                                                         2.441624       0.695625
                                                         6.739673       2.243109
                                                        34.417212       2.016536
                          1       6    2py               0.040000       0.000000
                                                         0.097098       0.005087
                                                         0.283960       0.032186
                                                         0.806764       0.779023
                                                         2.441624       0.695625
                                                         6.739673       2.243109
                                                        34.417212       2.016536
                          1       6    2pz               0.040000       0.000000
                                                         0.097098       0.005087
                                                         0.283960       0.032186
                                                         0.806764       0.779023
                                                         2.441624       0.695625
                                                         6.739673       2.243109
                                                        34.417212       2.016536

                          1       7    3px               0.040000       0.000000
                                                         0.097098       0.008084
                                                         0.283960       0.294367
                                                         0.806764      -0.188640
                                                         2.441624       0.912249
                                                         6.739673      -2.720242
                                                        34.417212       1.690366
                          1       7    3py               0.040000       0.000000
                                                         0.097098       0.008084
                                                         0.283960       0.294367
                                                         0.806764      -0.188640
                                                         2.441624       0.912249
                                                         6.739673      -2.720242
                                                        34.417212       1.690366
                          1       7    3pz               0.040000       0.000000
                                                         0.097098       0.008084
                                                         0.283960       0.294367
                                                         0.806764      -0.188640
                                                         2.441624       0.912249
                                                         6.739673      -2.720242
                                                        34.417212       1.690366

                          1       8    4px               0.040000       0.000000
                                                         0.097098       0.081068
                                                         0.283960      -0.017243
                                                         0.806764      -0.070055
                                                         2.441624      -0.855991
                                                         6.739673       1.761645
                                                        34.417212     -12.705833
                          1       8    4py               0.040000       0.000000
                                                         0.097098       0.081068
                                                         0.283960      -0.017243
                                                         0.806764      -0.070055
                                                         2.441624      -0.855991
                                                         6.739673       1.761645
                                                        34.417212     -12.705833
                          1       8    4pz               0.040000       0.000000
                                                         0.097098       0.081068
                                                         0.283960      -0.017243
                                                         0.806764      -0.070055
                                                         2.441624      -0.855991
                                                         6.739673       1.761645
                                                        34.417212     -12.705833

                          1       9    5px               0.040000       0.032085
                                                         0.097098      -0.027366
                                                         0.283960      -0.100343
                                                         0.806764      -0.020266
                                                         2.441624       0.000000
                                                         6.739673       0.000000
                                                        34.417212       0.000000
                          1       9    5py               0.040000       0.032085
                                                         0.097098      -0.027366
                                                         0.283960      -0.100343
                                                         0.806764      -0.020266
                                                         2.441624       0.000000
                                                         6.739673       0.000000
                                                        34.417212       0.000000
                          1       9    5pz               0.040000       0.032085
                                                         0.097098      -0.027366
                                                         0.283960      -0.100343
                                                         0.806764      -0.020266
                                                         2.441624       0.000000
                                                         6.739673       0.000000
                                                        34.417212       0.000000

                          1      10    3dx2              0.040000       0.000000
                                                         0.097098       0.001415
                                                         0.283960       0.015501
                                                         0.806764       0.546922
                                                         2.441624       3.763414
                                                         6.739673       4.248634
                                                        34.417212     174.894573
                          1      10    3dxy              0.040000       0.000000
                                                         0.097098       0.002451
                                                         0.283960       0.026849
                                                         0.806764       0.947296
                                                         2.441624       6.518424
                                                         6.739673       7.358850
                                                        34.417212     302.926287
                          1      10    3dxz              0.040000       0.000000
                                                         0.097098       0.002451
                                                         0.283960       0.026849
                                                         0.806764       0.947296
                                                         2.441624       6.518424
                                                         6.739673       7.358850
                                                        34.417212     302.926287
                          1      10    3dy2              0.040000       0.000000
                                                         0.097098       0.001415
                                                         0.283960       0.015501
                                                         0.806764       0.546922
                                                         2.441624       3.763414
                                                         6.739673       4.248634
                                                        34.417212     174.894573
                          1      10    3dyz              0.040000       0.000000
                                                         0.097098       0.002451
                                                         0.283960       0.026849
                                                         0.806764       0.947296
                                                         2.441624       6.518424
                                                         6.739673       7.358850
                                                        34.417212     302.926287
                          1      10    3dz2              0.040000       0.000000
                                                         0.097098       0.001415
                                                         0.283960       0.015501
                                                         0.806764       0.546922
                                                         2.441624       3.763414
                                                         6.739673       4.248634
                                                        34.417212     174.894573

                          1      11    4dx2              0.040000       0.000000
                                                         0.097098       0.001225
                                                         0.283960       0.139703
                                                         0.806764       0.323683
                                                         2.441624      -2.510108
                                                         6.739673      -4.401044
                                                        34.417212    -164.169372
                          1      11    4dxy              0.040000       0.000000
                                                         0.097098       0.002122
                                                         0.283960       0.241972
                                                         0.806764       0.560636
                                                         2.441624      -4.347634
                                                         6.739673      -7.622831
                                                        34.417212    -284.349694
                          1      11    4dxz              0.040000       0.000000
                                                         0.097098       0.002122
                                                         0.283960       0.241972
                                                         0.806764       0.560636
                                                         2.441624      -4.347634
                                                         6.739673      -7.622831
                                                        34.417212    -284.349694
                          1      11    4dy2              0.040000       0.000000
                                                         0.097098       0.001225
                                                         0.283960       0.139703
                                                         0.806764       0.323683
                                                         2.441624      -2.510108
                                                         6.739673      -4.401044
                                                        34.417212    -164.169372
                          1      11    4dyz              0.040000       0.000000
                                                         0.097098       0.002122
                                                         0.283960       0.241972
                                                         0.806764       0.560636
                                                         2.441624      -4.347634
                                                         6.739673      -7.622831
                                                        34.417212    -284.349694
                          1      11    4dz2              0.040000       0.000000
                                                         0.097098       0.001225
                                                         0.283960       0.139703
                                                         0.806764       0.323683
                                                         2.441624      -2.510108
                                                         6.739673      -4.401044
                                                        34.417212    -164.169372

                          1      12    5dx2              0.040000       0.006049
                                                         0.097098      -0.003128
                                                         0.283960       0.033814
                                                         0.806764       0.003338
                                                         2.441624       0.000000
                                                         6.739673       0.000000
                                                        34.417212       0.000000
                          1      12    5dxy              0.040000       0.010477
                                                         0.097098      -0.005418
                                                         0.283960       0.058567
                                                         0.806764       0.005781
                                                         2.441624       0.000000
                                                         6.739673       0.000000
                                                        34.417212       0.000000
                          1      12    5dxz              0.040000       0.010477
                                                         0.097098      -0.005418
                                                         0.283960       0.058567
                                                         0.806764       0.005781
                                                         2.441624       0.000000
                                                         6.739673       0.000000
                                                        34.417212       0.000000
                          1      12    5dy2              0.040000       0.006049
                                                         0.097098      -0.003128
                                                         0.283960       0.033814
                                                         0.806764       0.003338
                                                         2.441624       0.000000
                                                         6.739673       0.000000
                                                        34.417212       0.000000
                          1      12    5dyz              0.040000       0.010477
                                                         0.097098      -0.005418
                                                         0.283960       0.058567
                                                         0.806764       0.005781
                                                         2.441624       0.000000
                                                         6.739673       0.000000
                                                        34.417212       0.000000
                          1      12    5dz2              0.040000       0.006049
                                                         0.097098      -0.003128
                                                         0.283960       0.033814
                                                         0.806764       0.003338
                                                         2.441624       0.000000
                                                         6.739673       0.000000
                                                        34.417212       0.000000

                          1      13    4fx3              0.040000       0.000000
                                                         0.097098      -0.000799
                                                         0.283960       0.042127
                                                         0.806764       0.576468
                                                         2.441624       1.033755
                                                         6.739673      -2.026957
                                                        34.417212      49.427593
                          1      13    4fx2y             0.040000       0.000000
                                                         0.097098      -0.001786
                                                         0.283960       0.094199
                                                         0.806764       1.289022
                                                         2.441624       2.311546
                                                         6.739673      -4.532415
                                                        34.417212     110.523457
                          1      13    4fx2z             0.040000       0.000000
                                                         0.097098      -0.001786
                                                         0.283960       0.094199
                                                         0.806764       1.289022
                                                         2.441624       2.311546
                                                         6.739673      -4.532415
                                                        34.417212     110.523457
                          1      13    4fxy2             0.040000       0.000000
                                                         0.097098      -0.001786
                                                         0.283960       0.094199
                                                         0.806764       1.289022
                                                         2.441624       2.311546
                                                         6.739673      -4.532415
                                                        34.417212     110.523457
                          1      13    4fxyz             0.040000       0.000000
                                                         0.097098      -0.003093
                                                         0.283960       0.163158
                                                         0.806764       2.232651
                                                         2.441624       4.003716
                                                         6.739673      -7.850372
                                                        34.417212     191.432243
                          1      13    4fxz2             0.040000       0.000000
                                                         0.097098      -0.001786
                                                         0.283960       0.094199
                                                         0.806764       1.289022
                                                         2.441624       2.311546
                                                         6.739673      -4.532415
                                                        34.417212     110.523457
                          1      13    4fy3              0.040000       0.000000
                                                         0.097098      -0.000799
                                                         0.283960       0.042127
                                                         0.806764       0.576468
                                                         2.441624       1.033755
                                                         6.739673      -2.026957
                                                        34.417212      49.427593
                          1      13    4fy2z             0.040000       0.000000
                                                         0.097098      -0.001786
                                                         0.283960       0.094199
                                                         0.806764       1.289022
                                                         2.441624       2.311546
                                                         6.739673      -4.532415
                                                        34.417212     110.523457
                          1      13    4fyz2             0.040000       0.000000
                                                         0.097098      -0.001786
                                                         0.283960       0.094199
                                                         0.806764       1.289022
                                                         2.441624       2.311546
                                                         6.739673      -4.532415
                                                        34.417212     110.523457
                          1      13    4fz3              0.040000       0.000000
                                                         0.097098      -0.000799
                                                         0.283960       0.042127
                                                         0.806764       0.576468
                                                         2.441624       1.033755
                                                         6.739673      -2.026957
                                                        34.417212      49.427593

                          1      14    5fx3              0.040000       0.000092
                                                         0.097098       0.001511
                                                         0.283960      -0.094589
                                                         0.806764       0.000869
                                                         2.441624       0.000000
                                                         6.739673       0.000000
                                                        34.417212       0.000000
                          1      14    5fx2y             0.040000       0.000206
                                                         0.097098       0.003380
                                                         0.283960      -0.211507
                                                         0.806764       0.001943
                                                         2.441624       0.000000
                                                         6.739673       0.000000
                                                        34.417212       0.000000
                          1      14    5fx2z             0.040000       0.000206
                                                         0.097098       0.003380
                                                         0.283960      -0.211507
                                                         0.806764       0.001943
                                                         2.441624       0.000000
                                                         6.739673       0.000000
                                                        34.417212       0.000000
                          1      14    5fxy2             0.040000       0.000206
                                                         0.097098       0.003380
                                                         0.283960      -0.211507
                                                         0.806764       0.001943
                                                         2.441624       0.000000
                                                         6.739673       0.000000
                                                        34.417212       0.000000
                          1      14    5fxyz             0.040000       0.000357
                                                         0.097098       0.005854
                                                         0.283960      -0.366341
                                                         0.806764       0.003365
                                                         2.441624       0.000000
                                                         6.739673       0.000000
                                                        34.417212       0.000000
                          1      14    5fxz2             0.040000       0.000206
                                                         0.097098       0.003380
                                                         0.283960      -0.211507
                                                         0.806764       0.001943
                                                         2.441624       0.000000
                                                         6.739673       0.000000
                                                        34.417212       0.000000
                          1      14    5fy3              0.040000       0.000092
                                                         0.097098       0.001511
                                                         0.283960      -0.094589
                                                         0.806764       0.000869
                                                         2.441624       0.000000
                                                         6.739673       0.000000
                                                        34.417212       0.000000
                          1      14    5fy2z             0.040000       0.000206
                                                         0.097098       0.003380
                                                         0.283960      -0.211507
                                                         0.806764       0.001943
                                                         2.441624       0.000000
                                                         6.739673       0.000000
                                                        34.417212       0.000000
                          1      14    5fyz2             0.040000       0.000206
                                                         0.097098       0.003380
                                                         0.283960      -0.211507
                                                         0.806764       0.001943
                                                         2.441624       0.000000
                                                         6.739673       0.000000
                                                        34.417212       0.000000
                          1      14    5fz3              0.040000       0.000092
                                                         0.097098       0.001511
                                                         0.283960      -0.094589
                                                         0.806764       0.000869
                                                         2.441624       0.000000
                                                         6.739673       0.000000
                                                        34.417212       0.000000

                          1      15    5gx4              0.040000       0.000014
                                                         0.097098       0.001608
                                                         0.283960       0.004604
                                                         0.806764      -0.003474
                                                         2.441624       0.000000
                                                         6.739673       0.000000
                                                        34.417212       0.000000
                          1      15    5gx3y             0.040000       0.000036
                                                         0.097098       0.004255
                                                         0.283960       0.012180
                                                         0.806764      -0.009191
                                                         2.441624       0.000000
                                                         6.739673       0.000000
                                                        34.417212       0.000000
                          1      15    5gx3z             0.040000       0.000036
                                                         0.097098       0.004255
                                                         0.283960       0.012180
                                                         0.806764      -0.009191
                                                         2.441624       0.000000
                                                         6.739673       0.000000
                                                        34.417212       0.000000
                          1      15    5gx2y2            0.040000       0.000046
                                                         0.097098       0.005493
                                                         0.283960       0.015725
                                                         0.806764      -0.011865
                                                         2.441624       0.000000
                                                         6.739673       0.000000
                                                        34.417212       0.000000
                          1      15    5gx2yz            0.040000       0.000080
                                                         0.097098       0.009514
                                                         0.283960       0.027236
                                                         0.806764      -0.020551
                                                         2.441624       0.000000
                                                         6.739673       0.000000
                                                        34.417212       0.000000
                          1      15    5gx2z2            0.040000       0.000046
                                                         0.097098       0.005493
                                                         0.283960       0.015725
                                                         0.806764      -0.011865
                                                         2.441624       0.000000
                                                         6.739673       0.000000
                                                        34.417212       0.000000
                          1      15    5gxy3             0.040000       0.000036
                                                         0.097098       0.004255
                                                         0.283960       0.012180
                                                         0.806764      -0.009191
                                                         2.441624       0.000000
                                                         6.739673       0.000000
                                                        34.417212       0.000000
                          1      15    5gxy2z            0.040000       0.000080
                                                         0.097098       0.009514
                                                         0.283960       0.027236
                                                         0.806764      -0.020551
                                                         2.441624       0.000000
                                                         6.739673       0.000000
                                                        34.417212       0.000000
                          1      15    5gxyz2            0.040000       0.000080
                                                         0.097098       0.009514
                                                         0.283960       0.027236
                                                         0.806764      -0.020551
                                                         2.441624       0.000000
                                                         6.739673       0.000000
                                                        34.417212       0.000000
                          1      15    5gxz3             0.040000       0.000036
                                                         0.097098       0.004255
                                                         0.283960       0.012180
                                                         0.806764      -0.009191
                                                         2.441624       0.000000
                                                         6.739673       0.000000
                                                        34.417212       0.000000
                          1      15    5gy4              0.040000       0.000014
                                                         0.097098       0.001608
                                                         0.283960       0.004604
                                                         0.806764      -0.003474
                                                         2.441624       0.000000
                                                         6.739673       0.000000
                                                        34.417212       0.000000
                          1      15    5gy3z             0.040000       0.000036
                                                         0.097098       0.004255
                                                         0.283960       0.012180
                                                         0.806764      -0.009191
                                                         2.441624       0.000000
                                                         6.739673       0.000000
                                                        34.417212       0.000000
                          1      15    5gy2z2            0.040000       0.000046
                                                         0.097098       0.005493
                                                         0.283960       0.015725
                                                         0.806764      -0.011865
                                                         2.441624       0.000000
                                                         6.739673       0.000000
                                                        34.417212       0.000000
                          1      15    5gyz3             0.040000       0.000036
                                                         0.097098       0.004255
                                                         0.283960       0.012180
                                                         0.806764      -0.009191
                                                         2.441624       0.000000
                                                         6.739673       0.000000
                                                        34.417212       0.000000
                          1      15    5gz4              0.040000       0.000014
                                                         0.097098       0.001608
                                                         0.283960       0.004604
                                                         0.806764      -0.003474
                                                         2.441624       0.000000
                                                         6.739673       0.000000
                                                        34.417212       0.000000

                          2       1    1s            13575.369584       0.323227
                                                      2035.237517       2.062509
                                                       463.111112       2.210797
                                                       131.318553       4.954487
                                                        42.899593       1.730189
                                                        15.855102       4.257999

     RI Auxiliary Basis Set             RI_aug-TZVP-MOLOPT-ae_N_RI_048_s_p_d_f_g

       Number of orbital shell sets:                                          14
       Number of orbital shells:                                              14
       Number of primitive Cartesian functions:                               14
       Number of Cartesian basis functions:                                   62
       Number of spherical basis functions:                                   48
       Norm type:                                                              2

       Normalised Cartesian orbitals:

                        Set   Shell   Orbital            Exponent    Coefficient

                          1       1    1s                0.245676       0.248704

                          2       1    2s                0.424410       0.374757

                          3       1    7px               0.522937       0.633872
                          3       1    7py               0.522937       0.633872
                          3       1    7pz               0.522937       0.633872

                          4       1   12fx3              0.552235       0.387019
                          4       1   12fx2y             0.552235       0.865402
                          4       1   12fx2z             0.552235       0.865402
                          4       1   12fxy2             0.552235       0.865402
                          4       1   12fxyz             0.552235       1.498920
                          4       1   12fxz2             0.552235       0.865402
                          4       1   12fy3              0.552235       0.387019
                          4       1   12fy2z             0.552235       0.865402
                          4       1   12fyz2             0.552235       0.865402
                          4       1   12fz3              0.552235       0.387019

                          5       1   10dx2              0.685097       0.849133
                          5       1   10dxy              0.685097       1.470741
                          5       1   10dxz              0.685097       1.470741
                          5       1   10dy2              0.685097       0.849133
                          5       1   10dyz              0.685097       1.470741
                          5       1   10dz2              0.685097       0.849133

                          6       1   14gx4              1.009950       1.143562
                          6       1   14gx3y             1.009950       3.025581
                          6       1   14gx3z             1.009950       3.025581
                          6       1   14gx2y2            1.009950       3.906008
                          6       1   14gx2yz            1.009950       6.765404
                          6       1   14gx2z2            1.009950       3.906008
                          6       1   14gxy3             1.009950       3.025581
                          6       1   14gxy2z            1.009950       6.765404
                          6       1   14gxyz2            1.009950       6.765404
                          6       1   14gxz3             1.009950       3.025581
                          6       1   14gy4              1.009950       1.143562
                          6       1   14gy3z             1.009950       3.025581
                          6       1   14gy2z2            1.009950       3.906008
                          6       1   14gyz3             1.009950       3.025581
                          6       1   14gz4              1.009950       1.143562

                          7       1    3s                1.240999       0.837990

                          8       1    8px               1.729350       2.826791
                          8       1    8py               1.729350       2.826791
                          8       1    8pz               1.729350       2.826791

                          9       1   13fx3              1.829710       5.732109
                          9       1   13fx2y             1.829710      12.817385
                          9       1   13fx2z             1.829710      12.817385
                          9       1   13fxy2             1.829710      12.817385
                          9       1   13fxyz             1.829710      22.200361
                          9       1   13fxz2             1.829710      12.817385
                          9       1   13fy3              1.829710       5.732109
                          9       1   13fy2z             1.829710      12.817385
                          9       1   13fyz2             1.829710      12.817385
                          9       1   13fz3              1.829710       5.732109

                         10       1   11dx2              2.007195       5.571103
                         10       1   11dxy              2.007195       9.649433
                         10       1   11dxz              2.007195       9.649433
                         10       1   11dy2              2.007195       5.571103
                         10       1   11dyz              2.007195       9.649433
                         10       1   11dz2              2.007195       5.571103

                         11       1    4s                5.187361       2.449740

                         12       1    9px              10.111342      25.701062
                         12       1    9py              10.111342      25.701062
                         12       1    9pz              10.111342      25.701062

                         13       1    5s               21.086248       7.013093

                         14       1    6s               80.959415      19.235816

       Atomic covalent radius [Angstrom]:                                  0.770

       Atomic van der Waals radius [Angstrom]:                             1.700

     The atoms of this atomic kind are PAW atoms (GAPW):
       Hard Gaussian function radius:                                      1.512
       Rho0 radius:                                                        1.512
       Maximum GTO radius used for PAW projector construction:            24.566

     GAPW Soft Basis Set                                 aug-TZVP-MOLOPT-ae_soft

       Number of orbital shell sets:                                           2
       Number of orbital shells:                                              16
       Number of primitive Cartesian functions:                                5
       Number of Cartesian basis functions:                                   71
       Number of spherical basis functions:                                   56
       Norm type:                                                              2

       Normalised Cartesian orbitals:

                        Set   Shell   Orbital            Exponent    Coefficient

                          1       1    1s                0.040000       0.000000
                                                         0.097098       0.019281
                                                         0.283960       0.027513
                                                         0.806764       0.003692
                                                         2.441624       0.446183

                          1       2    2s                0.040000       0.000000
                                                         0.097098       0.029117
                                                         0.283960       0.094997
                                                         0.806764       0.362633
                                                         2.441624      -0.104551

                          1       3    3s                0.040000       0.000000
                                                         0.097098       0.047046
                                                         0.283960       0.169545
                                                         0.806764      -0.252838
                                                         2.441624      -0.199197

                          1       4    4s                0.040000       0.000000
                                                         0.097098       0.188374
                                                         0.283960      -0.341415
                                                         0.806764       0.091223
                                                         2.441624      -0.053941

                          1       5    5s                0.040000       0.099533
                                                         0.097098      -0.167672
                                                         0.283960      -0.126383
                                                         0.806764       0.030074
                                                         2.441624       0.000000

                          1       6    2px               0.040000       0.000000
                                                         0.097098       0.005087
                                                         0.283960       0.032186
                                                         0.806764       0.779023
                                                         2.441624       0.695625
                          1       6    2py               0.040000       0.000000
                                                         0.097098       0.005087
                                                         0.283960       0.032186
                                                         0.806764       0.779023
                                                         2.441624       0.695625
                          1       6    2pz               0.040000       0.000000
                                                         0.097098       0.005087
                                                         0.283960       0.032186
                                                         0.806764       0.779023
                                                         2.441624       0.695625

                          1       7    3px               0.040000       0.000000
                                                         0.097098       0.008084
                                                         0.283960       0.294367
                                                         0.806764      -0.188640
                                                         2.441624       0.912249
                          1       7    3py               0.040000       0.000000
                                                         0.097098       0.008084
                                                         0.283960       0.294367
                                                         0.806764      -0.188640
                                                         2.441624       0.912249
                          1       7    3pz               0.040000       0.000000
                                                         0.097098       0.008084
                                                         0.283960       0.294367
                                                         0.806764      -0.188640
                                                         2.441624       0.912249

                          1       8    4px               0.040000       0.000000
                                                         0.097098       0.081068
                                                         0.283960      -0.017243
                                                         0.806764      -0.070055
                                                         2.441624      -0.855991
                          1       8    4py               0.040000       0.000000
                                                         0.097098       0.081068
                                                         0.283960      -0.017243
                                                         0.806764      -0.070055
                                                         2.441624      -0.855991
                          1       8    4pz               0.040000       0.000000
                                                         0.097098       0.081068
                                                         0.283960      -0.017243
                                                         0.806764      -0.070055
                                                         2.441624      -0.855991

                          1       9    5px               0.040000       0.032085
                                                         0.097098      -0.027366
                                                         0.283960      -0.100343
                                                         0.806764      -0.020266
                                                         2.441624       0.000000
                          1       9    5py               0.040000       0.032085
                                                         0.097098      -0.027366
                                                         0.283960      -0.100343
                                                         0.806764      -0.020266
                                                         2.441624       0.000000
                          1       9    5pz               0.040000       0.032085
                                                         0.097098      -0.027366
                                                         0.283960      -0.100343
                                                         0.806764      -0.020266
                                                         2.441624       0.000000

                          1      10    3dx2              0.040000       0.000000
                                                         0.097098       0.001415
                                                         0.283960       0.015501
                                                         0.806764       0.546922
                                                         2.441624       3.763414
                          1      10    3dxy              0.040000       0.000000
                                                         0.097098       0.002451
                                                         0.283960       0.026849
                                                         0.806764       0.947296
                                                         2.441624       6.518424
                          1      10    3dxz              0.040000       0.000000
                                                         0.097098       0.002451
                                                         0.283960       0.026849
                                                         0.806764       0.947296
                                                         2.441624       6.518424
                          1      10    3dy2              0.040000       0.000000
                                                         0.097098       0.001415
                                                         0.283960       0.015501
                                                         0.806764       0.546922
                                                         2.441624       3.763414
                          1      10    3dyz              0.040000       0.000000
                                                         0.097098       0.002451
                                                         0.283960       0.026849
                                                         0.806764       0.947296
                                                         2.441624       6.518424
                          1      10    3dz2              0.040000       0.000000
                                                         0.097098       0.001415
                                                         0.283960       0.015501
                                                         0.806764       0.546922
                                                         2.441624       3.763414

                          1      11    4dx2              0.040000       0.000000
                                                         0.097098       0.001225
                                                         0.283960       0.139703
                                                         0.806764       0.323683
                                                         2.441624      -2.510108
                          1      11    4dxy              0.040000       0.000000
                                                         0.097098       0.002122
                                                         0.283960       0.241972
                                                         0.806764       0.560636
                                                         2.441624      -4.347634
                          1      11    4dxz              0.040000       0.000000
                                                         0.097098       0.002122
                                                         0.283960       0.241972
                                                         0.806764       0.560636
                                                         2.441624      -4.347634
                          1      11    4dy2              0.040000       0.000000
                                                         0.097098       0.001225
                                                         0.283960       0.139703
                                                         0.806764       0.323683
                                                         2.441624      -2.510108
                          1      11    4dyz              0.040000       0.000000
                                                         0.097098       0.002122
                                                         0.283960       0.241972
                                                         0.806764       0.560636
                                                         2.441624      -4.347634
                          1      11    4dz2              0.040000       0.000000
                                                         0.097098       0.001225
                                                         0.283960       0.139703
                                                         0.806764       0.323683
                                                         2.441624      -2.510108

                          1      12    5dx2              0.040000       0.006049
                                                         0.097098      -0.003128
                                                         0.283960       0.033814
                                                         0.806764       0.003338
                                                         2.441624       0.000000
                          1      12    5dxy              0.040000       0.010477
                                                         0.097098      -0.005418
                                                         0.283960       0.058567
                                                         0.806764       0.005781
                                                         2.441624       0.000000
                          1      12    5dxz              0.040000       0.010477
                                                         0.097098      -0.005418
                                                         0.283960       0.058567
                                                         0.806764       0.005781
                                                         2.441624       0.000000
                          1      12    5dy2              0.040000       0.006049
                                                         0.097098      -0.003128
                                                         0.283960       0.033814
                                                         0.806764       0.003338
                                                         2.441624       0.000000
                          1      12    5dyz              0.040000       0.010477
                                                         0.097098      -0.005418
                                                         0.283960       0.058567
                                                         0.806764       0.005781
                                                         2.441624       0.000000
                          1      12    5dz2              0.040000       0.006049
                                                         0.097098      -0.003128
                                                         0.283960       0.033814
                                                         0.806764       0.003338
                                                         2.441624       0.000000

                          1      13    4fx3              0.040000       0.000000
                                                         0.097098      -0.000799
                                                         0.283960       0.042127
                                                         0.806764       0.576468
                                                         2.441624       1.033755
                          1      13    4fx2y             0.040000       0.000000
                                                         0.097098      -0.001786
                                                         0.283960       0.094199
                                                         0.806764       1.289022
                                                         2.441624       2.311546
                          1      13    4fx2z             0.040000       0.000000
                                                         0.097098      -0.001786
                                                         0.283960       0.094199
                                                         0.806764       1.289022
                                                         2.441624       2.311546
                          1      13    4fxy2             0.040000       0.000000
                                                         0.097098      -0.001786
                                                         0.283960       0.094199
                                                         0.806764       1.289022
                                                         2.441624       2.311546
                          1      13    4fxyz             0.040000       0.000000
                                                         0.097098      -0.003093
                                                         0.283960       0.163158
                                                         0.806764       2.232651
                                                         2.441624       4.003716
                          1      13    4fxz2             0.040000       0.000000
                                                         0.097098      -0.001786
                                                         0.283960       0.094199
                                                         0.806764       1.289022
                                                         2.441624       2.311546
                          1      13    4fy3              0.040000       0.000000
                                                         0.097098      -0.000799
                                                         0.283960       0.042127
[...]
 RS_GRID|   Bounds   1           -202     202                Points:         405
 RS_GRID|   Bounds   2           -202     202                Points:         405
 RS_GRID|   Bounds   3           -202     202                Points:         405
 RS_GRID| Real space distribution over                                  4 groups
 RS_GRID| Real space distribution along direction                              2
 RS_GRID| Border size                                                         32
 RS_GRID| Real space distribution over                                  6 groups
 RS_GRID| Real space distribution along direction                              3
 RS_GRID| Border size                                                         32
 RS_GRID|   Distribution                         Average         Max         Min
 RS_GRID|   Planes                                 165.2         166         165
 RS_GRID|   Distribution                         Average         Max         Min
 RS_GRID|   Planes                                 131.5         132         131

 RS_GRID| Information for grid number                                          2
 RS_GRID|   Bounds   1           -120     119                Points:         240
 RS_GRID|   Bounds   2           -120     119                Points:         240
 RS_GRID|   Bounds   3           -120     119                Points:         240
 RS_GRID| Real space distribution over                                  4 groups
 RS_GRID| Real space distribution along direction                              2
 RS_GRID| Border size                                                         41
 RS_GRID| Real space distribution over                                  6 groups
 RS_GRID| Real space distribution along direction                              3
 RS_GRID| Border size                                                         41
 RS_GRID|   Distribution                         Average         Max         Min
 RS_GRID|   Planes                                 142.0         142         142
 RS_GRID|   Distribution                         Average         Max         Min
 RS_GRID|   Planes                                 122.0         122         122

 RS_GRID| Information for grid number                                          3
 RS_GRID|   Bounds   1            -67      67                Points:         135
 RS_GRID|   Bounds   2            -67      67                Points:         135
 RS_GRID|   Bounds   3            -67      67                Points:         135
 RS_GRID| Real space fully replicated
 RS_GRID| Group size                                                           1

 RS_GRID| Information for grid number                                          4
 RS_GRID|   Bounds   1            -40      39                Points:          80
 RS_GRID|   Bounds   2            -40      39                Points:          80
 RS_GRID|   Bounds   3            -40      39                Points:          80
 RS_GRID| Real space fully replicated
 RS_GRID| Group size                                                           1

  HFX_INFO| Replica ID:                                                        1
  HFX_INFO| FRACTION:                                               0.2500000000
  HFX_INFO| Interaction Potential:                                       COULOMB
  HFX_INFO| EPS_SCHWARZ:                                                 1.0E-10
  HFX_INFO| EPS_SCHWARZ_FORCES                                           1.0E-08
  HFX_INFO| EPS_STORAGE_SCALING:                                         1.0E+00
  HFX_INFO| NBINS:                                                            64
  HFX_INFO| BLOCK_SIZE:                                                        1
  HFX_INFO| Number of periodic shells considered:                           NONE
  HFX_INFO| Number of periodic cells considered:                            NONE

 
 RI-RPA| using GPW style
 

 OVERLAP MATRIX CONDITION NUMBER
 1-Norm Condition Number (Estimate)
   CN : |A|*|A^-1|:  7.578E+000 *  1.994E+003   = 1.511E+004  Log(1-CN):  4.1794
 1-Norm and 2-Norm Condition Numbers using Diagonalization
   CN : |A|*|A^-1|:  7.578E+000 *  1.994E+003   = 1.511E+004  Log(1-CN):  4.1794
   CN : max/min ev:  3.946E+000 /  8.140E-004   = 4.847E+003  Log(2-CN):  3.6855

 Number of electrons:                                                         12
 Number of occupied orbitals:                                                  6
 Number of molecular orbitals:                                               112

 Number of orbital functions:                                                112
 Number of independent orbital functions:                                    112

 Extrapolation method: initial_guess

 Atomic guess: The first density matrix is obtained in terms of atomic orbitals
               and electronic configurations assigned to each atomic kind

 Guess for atomic kind: C

 Electronic structure
    Total number of core electrons                                          0.00
    Total number of valence electrons                                       6.00
    Total number of electrons                                               6.00
    Multiplicity                                                   not specified
    S      2.00  2.00
    P      2.00


 *******************************************************************************
                  Iteration          Convergence                     Energy [au]
 *******************************************************************************
                          1        0.408086E-01                 -37.383571338589
                          2        0.199264E-01                 -37.384203573320
                          3        0.259961E-02                 -37.384435836203
                          4        0.391371E-04                 -37.384439874383
                          5        0.433696E-05                 -37.384439875510
                          6        0.203636E-05                 -37.384439875519
                          7        0.125946E-05                 -37.384439875520
                          8        0.885025E-06                 -37.384439875521

 Energy components [Hartree]           Total Energy ::          -37.384439875521
                                        Band Energy ::          -20.876980269916
                                     Kinetic Energy ::           37.852147377771
                                   Potential Energy ::          -75.236587253292
                                      Virial (-V/T) ::            1.987643831733
                                        Core Energy ::          -50.615205923802
                                          XC Energy ::           -4.796518113706
                                     Coulomb Energy ::           18.027284161987

 Orbital energies  State     L     Occupation   Energy[a.u.]          Energy[eV]

                       1     0          2.000      -9.827795         -267.427905
                       2     0          2.000      -0.450543          -12.259887

                       1     1          2.000      -0.160152           -4.357971


 Total Electron Density at R=0:                                       119.599082
 Re-scaling the density matrix to get the right number of electrons
                  # Electrons              Trace(P)               Scaling factor
                           12                12.000                        1.000


 SCF WAVEFUNCTION OPTIMIZATION

  Step     Update method      Time    Convergence         Total energy    Change
  ------------------------------------------------------------------------------

  HFX_MEM_INFO| Est. max. program size before HFX [MiB]:                    2151
  HFX_MEM_INFO| Number of cart. primitive ERI's calculated:          23369478023
  HFX_MEM_INFO| Number of sph. ERI's calculated:                        59006533
  HFX_MEM_INFO| Number of sph. ERI's stored in-core:                    59006533
  HFX_MEM_INFO| Number of sph. ERI's stored on disk:                           0
  HFX_MEM_INFO| Number of sph. ERI's calculated on the fly:                    0
  HFX_MEM_INFO| Total memory consumption ERI's RAM [MiB]:                    246
  HFX_MEM_INFO| Whereof max-vals [MiB]:                                        1
  HFX_MEM_INFO| Total compression factor ERI's RAM:                         1.83
  HFX_MEM_INFO| Total memory consumption ERI's disk [MiB]:                     0
  HFX_MEM_INFO| Total compression factor ERI's disk:                        0.00
  HFX_MEM_INFO| Size of density/Fock matrix [MiB]:                             0
  HFX_MEM_INFO| Size of buffers [MiB]:                                       279
  HFX_MEM_INFO| Est. max. program size after HFX  [MiB]:                    2985

     1 NoMix/Diag. 0.10E+00  561.8     0.81556254       -75.8887637616 -7.59E+01
     2 Broy./Diag. 0.10E+00    5.1     0.07482200       -76.3073326933 -4.19E-01
     3 Broy./Diag. 0.10E+00    5.4     0.03162794       -76.6026611222 -2.95E-01
     4 Broy./Diag. 0.10E+00    5.2     0.07175305       -75.7874121523  8.15E-01
     5 Broy./Diag. 0.10E+00    5.2     0.01181120       -75.7722176339  1.52E-02
     6 Broy./Diag. 0.10E+00    5.3     0.00429948       -75.7982117156 -2.60E-02
     7 Broy./Diag. 0.10E+00    5.4     0.00606458       -75.7811598960  1.71E-02
     8 Broy./Diag. 0.10E+00    5.5     0.00438831       -75.7801556395  1.00E-03
     9 Broy./Diag. 0.10E+00    5.7     0.00049798       -75.7845546565 -4.40E-03
    10 Broy./Diag. 0.10E+00    5.7     0.00647763       -75.7758597687  8.69E-03
    11 Broy./Diag. 0.10E+00    5.7     0.00193350       -75.7956856534 -1.98E-02
    12 Broy./Diag. 0.10E+00    5.7     0.00242247       -75.8035095661 -7.82E-03
    13 Broy./Diag. 0.10E+00    5.7     0.00357284       -75.8012052218  2.30E-03
    14 Broy./Diag. 0.10E+00    5.7     0.00148835       -75.7945693325  6.64E-03
    15 Broy./Diag. 0.10E+00    5.7     0.00169524       -75.7890684874  5.50E-03
    16 Broy./Diag. 0.10E+00    5.7     0.00111338       -75.7923803586 -3.31E-03
    17 Broy./Diag. 0.10E+00    5.7     0.00029113       -75.7939332707 -1.55E-03
    18 Broy./Diag. 0.10E+00    5.7     0.00013272       -75.7938972283  3.60E-05
    19 Broy./Diag. 0.10E+00    5.8     0.00053881       -75.7930122300  8.85E-04
    20 Broy./Diag. 0.10E+00    5.7     0.00026711       -75.7946408402 -1.63E-03
    21 Broy./Diag. 0.10E+00    5.7     0.00018366       -75.7951399144 -4.99E-04
    22 Broy./Diag. 0.10E+00    5.7     0.00005672       -75.7943116788  8.28E-04
    23 Broy./Diag. 0.10E+00    5.7     0.00098801       -75.7937564980  5.55E-04
    24 Broy./Diag. 0.10E+00    5.7     0.00090157       -75.7946984233 -9.42E-04
    25 Broy./Diag. 0.10E+00    5.7     0.00074526       -75.7946273611  7.11E-05
    26 Broy./Diag. 0.10E+00    5.7     0.00060743       -75.7943258506  3.02E-04
    27 Broy./Diag. 0.10E+00    5.7     0.00049557       -75.7939672706  3.59E-04
    28 Broy./Diag. 0.10E+00    5.7     0.00039094       -75.7935760093  3.91E-04
    29 Broy./Diag. 0.10E+00    5.7     0.00031989       -75.7935620094  1.40E-05
    30 Broy./Diag. 0.10E+00    5.8     0.00028270       -75.7937423821 -1.80E-04
    31 Broy./Diag. 0.10E+00    5.8     0.00026814       -75.7936880726  5.43E-05
    32 Broy./Diag. 0.10E+00    5.7     0.00009639       -75.7940113693 -3.23E-04
    33 Broy./Diag. 0.10E+00    5.7     0.00021802       -75.7939206353  9.07E-05
    34 Broy./Diag. 0.10E+00    5.8     0.00042651       -75.7941628844 -2.42E-04
    35 Broy./Diag. 0.10E+00    5.7     0.00017349       -75.7938435124  3.19E-04
    36 Broy./Diag. 0.10E+00    5.7     0.00014362       -75.7929479039  8.96E-04
    37 Broy./Diag. 0.10E+00    5.7     0.00021739       -75.7928648873  8.30E-05
    38 Broy./Diag. 0.10E+00    5.7     0.00027189       -75.7935339385 -6.69E-04
    39 Broy./Diag. 0.10E+00    5.7     0.00040293       -75.7933916291  1.42E-04
    40 Broy./Diag. 0.10E+00    5.7     0.00040689       -75.7935590308 -1.67E-04
    41 Broy./Diag. 0.10E+00    5.7     0.00025492       -75.7943449864 -7.86E-04
    42 Broy./Diag. 0.10E+00    5.8     0.00030601       -75.7946640425 -3.19E-04
    43 Broy./Diag. 0.10E+00    5.7     0.00021303       -75.7952138985 -5.50E-04
    44 Broy./Diag. 0.10E+00    5.7     0.00101162       -75.7950104125  2.03E-04
    45 Broy./Diag. 0.10E+00    5.7     0.00152257       -75.7964932683 -1.48E-03
    46 Broy./Diag. 0.10E+00    5.7     0.00165619       -75.7976795611 -1.19E-03
    47 Broy./Diag. 0.10E+00    5.7     0.00070082       -75.7964411333  1.24E-03
    48 Broy./Diag. 0.10E+00    5.7     0.00042283       -75.7949427029  1.50E-03
    49 Broy./Diag. 0.10E+00    5.7     0.00013317       -75.7945704029  3.72E-04
    50 Broy./Diag. 0.10E+00    5.7     0.00018057       -75.7944948762  7.55E-05
    51 Broy./Diag. 0.10E+00    5.7     0.00008750       -75.7944747479  2.01E-05
    52 Broy./Diag. 0.10E+00    5.7     0.00007719       -75.7943968073  7.79E-05
    53 Broy./Diag. 0.10E+00    5.8     0.00021854       -75.7947711329 -3.74E-04
    54 Broy./Diag. 0.10E+00    5.7     0.00017034       -75.7944285781  3.43E-04
    55 Broy./Diag. 0.10E+00    5.7     0.00014590       -75.7945215743 -9.30E-05
    56 Broy./Diag. 0.10E+00    5.8     0.00009903       -75.7938882549  6.33E-04
    57 Broy./Diag. 0.10E+00    5.7     0.00025082       -75.7930624111  8.26E-04
    58 Broy./Diag. 0.10E+00    5.7     0.00040252       -75.7927970476  2.65E-04
    59 Broy./Diag. 0.10E+00    5.7     0.00035524       -75.7927498734  4.72E-05
    60 Broy./Diag. 0.10E+00    5.7     0.00039482       -75.7927638628 -1.40E-05
    61 Broy./Diag. 0.10E+00    5.8     0.00033321       -75.7927742519 -1.04E-05
    62 Broy./Diag. 0.10E+00    5.8     0.00030973       -75.7929777973 -2.04E-04
    63 Broy./Diag. 0.10E+00    5.7     0.00050805       -75.7920886267  8.89E-04
    64 Broy./Diag. 0.10E+00    5.8     0.00070428       -75.7928860187 -7.97E-04
    65 Broy./Diag. 0.10E+00    5.7     0.00023790       -75.7928389893  4.70E-05
    66 Broy./Diag. 0.10E+00    5.7     0.00028738       -75.7927712200  6.78E-05
    67 Broy./Diag. 0.10E+00    5.7     0.00031604       -75.7926543627  1.17E-04
    68 Broy./Diag. 0.10E+00    5.7     0.00035851       -75.7927584506 -1.04E-04
    69 Broy./Diag. 0.10E+00    5.7     0.00045915       -75.7928046809 -4.62E-05
    70 Broy./Diag. 0.10E+00    5.7     0.00058958       -75.7928101262 -5.45E-06
    71 Broy./Diag. 0.10E+00    5.7     0.00075682       -75.7927624097  4.77E-05
    72 Broy./Diag. 0.10E+00    5.7     0.00097205       -75.7925590490  2.03E-04
    73 Broy./Diag. 0.10E+00    5.7     0.00124353       -75.7933055369 -7.46E-04
    74 Broy./Diag. 0.10E+00    5.7     0.00159420       -75.7930652429  2.40E-04
    75 Broy./Diag. 0.10E+00    5.7     0.00204379       -75.7935817632 -5.17E-04
    76 Broy./Diag. 0.10E+00    5.7     0.00263864       -75.7938711245 -2.89E-04
    77 Broy./Diag. 0.10E+00    5.7     0.00335832       -75.7928750567  9.96E-04
    78 Broy./Diag. 0.10E+00    5.8     0.00427595       -75.7918538922  1.02E-03
    79 Broy./Diag. 0.10E+00    5.7     0.00541941       -75.7907905258  1.06E-03
    80 Broy./Diag. 0.10E+00    5.7     0.00683270       -75.7890131129  1.78E-03
    81 Broy./Diag. 0.10E+00    5.7     0.00850199       -75.7856558748  3.36E-03
    82 Broy./Diag. 0.10E+00    5.7     0.01025485       -75.7835214248  2.13E-03
    83 Broy./Diag. 0.10E+00    5.7     0.01205684       -75.7770314204  6.49E-03
    84 Broy./Diag. 0.10E+00    5.7     0.01475586       -75.7691390215  7.89E-03
    85 Broy./Diag. 0.10E+00    5.7     0.01990960       -75.7568931294  1.22E-02
    86 Broy./Diag. 0.10E+00    5.7     0.02666863       -75.7373387610  1.96E-02
    87 Broy./Diag. 0.10E+00    5.7     0.03323200       -75.7109322227  2.64E-02
    88 Broy./Diag. 0.10E+00    5.7     0.03681091       -75.6791158924  3.18E-02
    89 Broy./Diag. 0.10E+00    5.7     0.03689117       -75.6433306018  3.58E-02
    90 Broy./Diag. 0.10E+00    5.8     0.03352404       -75.6048565194  3.85E-02
    91 Broy./Diag. 0.10E+00    5.7     0.02726790       -75.5758397886  2.90E-02
    92 Broy./Diag. 0.10E+00    5.8     0.02092616       -75.5511068108  2.47E-02
    93 Broy./Diag. 0.10E+00    5.7     0.01555955       -75.5332968855  1.78E-02
    94 Broy./Diag. 0.10E+00    5.7     0.01195265       -75.5215967618  1.17E-02
    95 Broy./Diag. 0.10E+00    5.8     0.01053861       -75.5098505170  1.17E-02
    96 Broy./Diag. 0.10E+00    5.7     0.00807481       -75.5050549141  4.80E-03
    97 Broy./Diag. 0.10E+00    5.7     0.00692034       -75.5033948322  1.66E-03
    98 Broy./Diag. 0.10E+00    5.8     0.00590592       -75.5411143090 -3.77E-02
    99 Broy./Diag. 0.10E+00    5.8     0.00507739       -75.5142195777  2.69E-02
   100 Broy./Diag. 0.10E+00    5.8     0.00827949       -75.6047701831 -9.06E-02
   101 Broy./Diag. 0.10E+00    5.8     0.00942070       -75.7569084783 -1.52E-01
   102 Broy./Diag. 0.10E+00    5.9     0.01735423       -75.8682835949 -1.11E-01
   103 Broy./Diag. 0.10E+00    5.8     0.02326808       -76.2013972037 -3.33E-01
   104 Broy./Diag. 0.10E+00    5.8     0.02031702       -76.2985779005 -9.72E-02
   105 Broy./Diag. 0.10E+00    5.7     0.03013594       -76.1617150998  1.37E-01
   106 Broy./Diag. 0.10E+00    5.7     0.03467130       -76.1207138917  4.10E-02
   107 Broy./Diag. 0.10E+00    5.6     0.08184562       -76.0150943978  1.06E-01
   108 Broy./Diag. 0.10E+00    5.7     0.07370872       -76.0404176826 -2.53E-02
   109 Broy./Diag. 0.10E+00    5.6     0.05206919       -76.0705015778 -3.01E-02
   110 Broy./Diag. 0.10E+00    5.6     0.02670278       -76.0241549590  4.63E-02
   111 Broy./Diag. 0.10E+00    5.8     0.03966880       -75.9665684398  5.76E-02
   112 Broy./Diag. 0.10E+00    5.9     0.01272730       -75.9369956993  2.96E-02
   113 Broy./Diag. 0.10E+00    5.9     0.05157797       -75.9534334626 -1.64E-02
   114 Broy./Diag. 0.10E+00    5.9     0.03338362       -75.9673936503 -1.40E-02
   115 Broy./Diag. 0.10E+00    5.8     0.03951563       -75.9640153745  3.38E-03
   116 Broy./Diag. 0.10E+00    5.8     0.01577678       -75.9337825662  3.02E-02
   117 Broy./Diag. 0.10E+00    5.8     0.01551582       -75.8895283238  4.43E-02
   118 Broy./Diag. 0.10E+00    5.8     0.00710364       -75.8627233200  2.68E-02
   119 Broy./Diag. 0.10E+00    5.8     0.00695670       -75.8605916038  2.13E-03
   120 Broy./Diag. 0.10E+00    5.8     0.00748382       -75.8513679244  9.22E-03
   121 Broy./Diag. 0.10E+00    5.8     0.05733262       -75.8593346424 -7.97E-03
   122 Broy./Diag. 0.10E+00    5.8     0.06709598       -75.8664138633 -7.08E-03
   123 Broy./Diag. 0.10E+00    5.8     0.03861720       -75.8514408791  1.50E-02
   124 Broy./Diag. 0.10E+00    5.9     0.03668156       -75.8484701806  2.97E-03
   125 Broy./Diag. 0.10E+00    5.8     0.03398837       -75.8454198300  3.05E-03
   126 Broy./Diag. 0.10E+00    5.8     0.02683325       -75.8391371928  6.28E-03
   127 Broy./Diag. 0.10E+00    5.9     0.01775148       -75.8380926268  1.04E-03
   128 Broy./Diag. 0.10E+00    5.8     0.00933968       -75.8307076555  7.38E-03
   129 Broy./Diag. 0.10E+00    5.9     0.00785385       -75.8239681124  6.74E-03
   130 Broy./Diag. 0.10E+00    5.8     0.00734964       -75.8168656075  7.10E-03
   131 Broy./Diag. 0.10E+00    5.8     0.00872030       -75.8104599248  6.41E-03
   132 Broy./Diag. 0.10E+00    5.8     0.00824408       -75.7986763385  1.18E-02
   133 Broy./Diag. 0.10E+00    5.8     0.01468436       -75.7899473253  8.73E-03
   134 Broy./Diag. 0.10E+00    5.8     0.04950316       -75.7638639721  2.61E-02
   135 Broy./Diag. 0.10E+00    5.8     0.05624052       -75.7595113934  4.35E-03
   136 Broy./Diag. 0.10E+00    5.8     0.04835921       -75.7757925110 -1.63E-02
   137 Broy./Diag. 0.10E+00    5.9     0.05172443       -75.7725611719  3.23E-03
   138 Broy./Diag. 0.10E+00    5.8     0.04714993       -75.7192613392  5.33E-02
