 DBCSR| CPU Multiplication driver                                           BLAS (U)
 DBCSR| Multrec recursion limit                                              512 (U)
 DBCSR| Multiplication stack size                                           1000 (D)
 DBCSR| Maximum elements for images                                    UNLIMITED (U)
 DBCSR| Multiplicative factor virtual images                                   1 (U)
 DBCSR| Use multiplication densification                                       T (D)
 DBCSR| Multiplication size stacks                                             3 (U)
 DBCSR| Use memory pool for CPU allocation                                     F (U)
 DBCSR| Number of 3D layers                                               SINGLE (U)
 DBCSR| Use MPI memory allocation                                              F (U)
 DBCSR| Use RMA algorithm                                                      F (U)
 DBCSR| Use Communication thread                                               T (U)
 DBCSR| Communication thread load                                             75 (D)
 DBCSR| MPI: My process id                                                     0
 DBCSR| MPI: Number of processes                                              24
 DBCSR| OMP: Current number of threads                                         4
 DBCSR| OMP: Max number of threads                                             4
 DBCSR| Split modifier for TAS multiplication algorithm                  1.0E+00 (U)


  **** **** ******  **  PROGRAM STARTED AT               2025-03-16 13:56:13.134
 ***** ** ***  *** **   PROGRAM STARTED ON                          i04r03c05s07
 **    ****   ******    PROGRAM STARTED BY                               di38fab
 ***** **    ** ** **   PROGRAM PROCESS ID                               3540512
  **** **  *******  **  PROGRAM STARTED IN /hppfs/scratch/04/di38fab/05_MOL/W4-1
                                           1+ALK/nh/SZVSR/GW+BSE/Np1

 CP2K| version string:                 CP2K version 2025.1 (Development Version)
 CP2K| source code revision number:                                  git:d2e611a
 CP2K| cp2kflags: omp libint fftw3 libxc parallel scalapack max_contr=4         
 CP2K| is freely available from                            https://www.cp2k.org/
 CP2K| Program compiled at                       Thu 06 Mar 2025 05:09:20 PM CET
 CP2K| Program compiled on                                               login02
 CP2K| Program compiled for                                        Supermuc-foss
 CP2K| Data directory path                  /hppfs/work/pn36zo/di38fab/cp2k/data
 CP2K| Input file name                                                    GW.inp

 GLOBAL| Force Environment number                                              1
 GLOBAL| Basis set file name            /hppfs/scratch/04/di38fab/04_TMD/BASIS_A
 GLOBAL| Potential file name            /hppfs/work/pn36zo/di38fab/cp2k/data/ALL
 GLOBAL| MM Potential file name                                     MM_POTENTIAL
 GLOBAL| Coordinate file name                                      __STD_INPUT__
 GLOBAL| Method name                                                        CP2K
 GLOBAL| Project name                                                       MoS2
 GLOBAL| Run type                                                         ENERGY
 GLOBAL| FFT library                                                       FFTW3
 GLOBAL| Diagonalization library                                       ScaLAPACK
 GLOBAL| DGEMM library                                                      BLAS
 GLOBAL| Orthonormality check for eigenvectors                          DISABLED
 GLOBAL| Matrix multiplication library                                 ScaLAPACK
 GLOBAL| All-to-all communication in single precision                          F
 GLOBAL| FFTs using library dependent lengths                                  F
 GLOBAL| Grid backend                                                       AUTO
 GLOBAL| Global print level                                               MEDIUM
 GLOBAL| MPI I/O enabled                                                       T
 GLOBAL| Total number of message passing processes                            24
 GLOBAL| Number of threads for this process                                    4
 GLOBAL| This output is from process                                           0
 GLOBAL| OpenMP stack size per thread (OMP_STACKSIZE)                    default
 GLOBAL| CPU model name             Intel(R) Xeon(R) Platinum 8174 CPU @ 3.10GHz

 MEMORY| system memory details [Kb]
 MEMORY|                        rank 0           min           max       average
 MEMORY| MemTotal             98436660      98436660      98436660      98436660
 MEMORY| MemFree              83797316      83753812      83797316      83775564
 MEMORY| Buffers                     0             0             0             0
 MEMORY| Cached                2402492       2393536       2402492       2398014
 MEMORY| Slab                  1239192       1239192       1243760       1241476
 MEMORY| SReclaimable           273868        271492        273868        272680
 MEMORY| MemLikelyFree        86473676      86418840      86473676      86446258


 *** Fundamental physical constants (SI units) ***

 *** Literature: B. J. Mohr and B. N. Taylor,
 ***             CODATA recommended values of the fundamental physical
 ***             constants: 2006, Web Version 5.1
 ***             http://physics.nist.gov/constants

 Speed of light in vacuum [m/s]                             2.99792458000000E+08
 Magnetic constant or permeability of vacuum [N/A**2]       1.25663706143592E-06
 Electric constant or permittivity of vacuum [F/m]          8.85418781762039E-12
 Planck constant (h) [J*s]                                  6.62606896000000E-34
 Planck constant (h-bar) [J*s]                              1.05457162825177E-34
 Elementary charge [C]                                      1.60217648700000E-19
 Electron mass [kg]                                         9.10938215000000E-31
 Electron g factor [ ]                                     -2.00231930436220E+00
 Proton mass [kg]                                           1.67262163700000E-27
 Fine-structure constant                                    7.29735253760000E-03
 Rydberg constant [1/m]                                     1.09737315685270E+07
 Avogadro constant [1/mol]                                  6.02214179000000E+23
 Boltzmann constant [J/K]                                   1.38065040000000E-23
 Atomic mass unit [kg]                                      1.66053878200000E-27
 Bohr radius [m]                                            5.29177208590000E-11

 *** Conversion factors ***

 [u] -> [a.u.]                                              1.82288848426455E+03
 [Angstrom] -> [Bohr] = [a.u.]                              1.88972613288564E+00
 [a.u.] = [Bohr] -> [Angstrom]                              5.29177208590000E-01
 [a.u.] -> [s]                                              2.41888432650478E-17
 [a.u.] -> [fs]                                             2.41888432650478E-02
 [a.u.] -> [J]                                              4.35974393937059E-18
 [a.u.] -> [N]                                              8.23872205491840E-08
 [a.u.] -> [K]                                              3.15774647902944E+05
 [a.u.] -> [kJ/mol]                                         2.62549961709828E+03
 [a.u.] -> [kcal/mol]                                       6.27509468713739E+02
 [a.u.] -> [Pa]                                             2.94210107994716E+13
 [a.u.] -> [bar]                                            2.94210107994716E+08
 [a.u.] -> [atm]                                            2.90362800883016E+08
 [a.u.] -> [eV]                                             2.72113838565563E+01
 [a.u.] -> [Hz]                                             6.57968392072181E+15
 [a.u.] -> [1/cm] (wave numbers)                            2.19474631370540E+05
 [a.u./Bohr**2] -> [1/cm]                                   5.14048714338585E+03
 

 CELL_TOP| Volume [angstrom^3]:                                     27000.000000
 CELL_TOP| Vector a [angstrom    30.000     0.000     0.000   |a| =    30.000000
 CELL_TOP| Vector b [angstrom     0.000    30.000     0.000   |b| =    30.000000
 CELL_TOP| Vector c [angstrom     0.000     0.000    30.000   |c| =    30.000000
 CELL_TOP| Angle (b,c), alpha [degree]:                                90.000000
 CELL_TOP| Angle (a,c), beta  [degree]:                                90.000000
 CELL_TOP| Angle (a,b), gamma [degree]:                                90.000000
 CELL_TOP| Numerically orthorhombic:                                         YES
 CELL_TOP| Periodicity                                                      NONE

 GENERATE|  Preliminary Number of Bonds generated:                             0
 GENERATE|  Achieved consistency in connectivity generation.

 CELL| Volume [angstrom^3]:                                         27000.000000
 CELL| Vector a [angstrom]:      30.000     0.000     0.000   |a| =    30.000000
 CELL| Vector b [angstrom]:       0.000    30.000     0.000   |b| =    30.000000
 CELL| Vector c [angstrom]:       0.000     0.000    30.000   |c| =    30.000000
 CELL| Angle (b,c), alpha [degree]:                                    90.000000
 CELL| Angle (a,c), beta  [degree]:                                    90.000000
 CELL| Angle (a,b), gamma [degree]:                                    90.000000
 CELL| Numerically orthorhombic:                                             YES
 CELL| Periodicity                                                          NONE

 CELL_REF| Volume [angstrom^3]:                                     27000.000000
 CELL_REF| Vector a [angstrom    30.000     0.000     0.000   |a| =    30.000000
 CELL_REF| Vector b [angstrom     0.000    30.000     0.000   |b| =    30.000000
 CELL_REF| Vector c [angstrom     0.000     0.000    30.000   |c| =    30.000000
 CELL_REF| Angle (b,c), alpha [degree]:                                90.000000
 CELL_REF| Angle (a,c), beta  [degree]:                                90.000000
 CELL_REF| Angle (a,b), gamma [degree]:                                90.000000
 CELL_REF| Numerically orthorhombic:                                         YES
 CELL_REF| Periodicity                                                      NONE

 *******************************************************************************
 *******************************************************************************
 **                                                                           **
 **     #####                         ##              ##                      **
 **    ##   ##            ##          ##              ##                      **
 **   ##     ##                       ##            ######                    **
 **   ##     ##  ##   ##  ##   #####  ##  ##   ####   ##    #####    #####    **
 **   ##     ##  ##   ##  ##  ##      ## ##   ##      ##   ##   ##  ##   ##   **
 **   ##  ## ##  ##   ##  ##  ##      ####     ###    ##   ######   ######    **
 **    ##  ###   ##   ##  ##  ##      ## ##      ##   ##   ##       ##        **
 **     #######   #####   ##   #####  ##  ##  ####    ##    #####   ##        **
 **           ##                                                    ##        **
 **                                                                           **
 **                                                ... make the atoms dance   **
 **                                                                           **
 **            Copyright (C) by CP2K developers group (2000-2025)             **
 **                      J. Chem. Phys. 152, 194103 (2020)                    **
 **                                                                           **
 *******************************************************************************

 DFT| Spin restricted Kohn-Sham (RKS) calculation                            RKS
 DFT| Multiplicity                                                             1
 DFT| Number of spin states                                                    1
 DFT| Charge                                                                   0
 DFT| Self-interaction correction (SIC)                                       NO
 DFT| Cutoffs: density                                              1.000000E-10
 DFT|          gradient                                             1.000000E-10
 DFT|          tau                                                  1.000000E-10
 DFT|          cutoff_smoothing_range                               0.000000E+00
 DFT| XC density smoothing                                                  NONE
 DFT| XC derivatives                                                          PW

 FUNCTIONAL| PBE:
 FUNCTIONAL| J.P.Perdew, K.Burke, M.Ernzerhof, Phys. Rev. Letter, vol. 77, n 18,
 FUNCTIONAL|  pp. 3865-3868, (1996)sx=0.750sc=1.000{spin unpolarized}           


 QS| Method:                                                                GAPW
 QS| Density plane wave grid type                        NON-SPHERICAL FULLSPACE
 QS| Number of grid levels:                                                    4
 QS| Density cutoff [a.u.]:                                                250.0
 QS| Multi grid cutoff [a.u.]: 1) grid level                               250.0
 QS|                           2) grid level                                83.3
 QS|                           3) grid level                                27.8
 QS|                           4) grid level                                 9.3
 QS| Grid level progression factor:                                          3.0
 QS| Relative density cutoff [a.u.]:                                        50.0
 QS| Interaction thresholds: eps_pgf_orb:                                1.0E-12
 QS|                         eps_filter_matrix:                          0.0E+00
 QS|                         eps_core_charge:                            1.0E-14
 QS|                         eps_rho_gspace:                             1.0E-12
 QS|                         eps_rho_rspace:                             1.0E-12
 QS|                         eps_gvg_rspace:                             1.0E-06
 QS|                         eps_ppl:                                    1.0E-02
 QS|                         eps_ppnl:                                   1.0E-08
 QS| GAPW|      One center basis from orbital basis primitives
 QS| GAPW|                   eps_fit:                                    1.0E-04
 QS| GAPW|                   eps_iso:                                    1.0E-12
 QS| GAPW|                   eps_svd:                                    1.0E-08
 QS| GAPW|                   eps_cpc:                                    1.0E-12
 QS| GAPW|   atom-r-grid: quadrature:                                     GC_LOG
 QS| GAPW|      atom-s-grid:  max l :                                          4
 QS| GAPW|      max_l_rho0 :                                                   2
 QS| GAPW|      At least one kind is NOT PAW, i.e. it has only soft AO 
 QS| GAPW|      The NOT PAW atoms are treated fully GPW


 ATOMIC KIND INFORMATION

  1. Atomic kind: N                                     Number of atoms:       1

     Orbital Basis Set                                      aug-SZV-MOLOPT-ae-SR

       Number of orbital shell sets:                                           2
       Number of orbital shells:                                               6
       Number of primitive Cartesian functions:                                7
       Number of Cartesian basis functions:                                   15
       Number of spherical basis functions:                                   14
       Norm type:                                                              2

       Normalised Cartesian orbitals:

                        Set   Shell   Orbital            Exponent    Coefficient

                          1       1    1s                0.112012       0.000000
                                                         0.285714       0.194997
                                                         0.878497       0.258372
                                                         3.780456      -0.193164

                          1       2    2s                0.112012       0.083551
                                                         0.285714      -0.189186
                                                         0.878497      -0.469875
                                                         3.780456      -0.002085

                          1       3    2px               0.112012       0.000000
                                                         0.285714       0.116706
                                                         0.878497       0.736704
                                                         3.780456       1.171553
                          1       3    2py               0.112012       0.000000
                                                         0.285714       0.116706
                                                         0.878497       0.736704
                                                         3.780456       1.171553
                          1       3    2pz               0.112012       0.000000
                                                         0.285714       0.116706
                                                         0.878497       0.736704
                                                         3.780456       1.171553

                          1       4    3px               0.112012       0.141957
                                                         0.285714      -0.286713
                                                         0.878497       0.074784
                                                         3.780456       0.008085
                          1       4    3py               0.112012       0.141957
                                                         0.285714      -0.286713
                                                         0.878497       0.074784
                                                         3.780456       0.008085
                          1       4    3pz               0.112012       0.141957
                                                         0.285714      -0.286713
                                                         0.878497       0.074784
                                                         3.780456       0.008085

                          1       5    3dx2              0.112012      -0.000364
                                                         0.285714       0.186009
                                                         0.878497      -0.044751
                                                         3.780456       1.815169
                          1       5    3dxy              0.112012      -0.000630
                                                         0.285714       0.322177
                                                         0.878497      -0.077512
                                                         3.780456       3.143965
                          1       5    3dxz              0.112012      -0.000630
                                                         0.285714       0.322177
                                                         0.878497      -0.077512
                                                         3.780456       3.143965
                          1       5    3dy2              0.112012      -0.000364
                                                         0.285714       0.186009
                                                         0.878497      -0.044751
                                                         3.780456       1.815169
                          1       5    3dyz              0.112012      -0.000630
                                                         0.285714       0.322177
                                                         0.878497      -0.077512
                                                         3.780456       3.143965
                          1       5    3dz2              0.112012      -0.000364
                                                         0.285714       0.186009
                                                         0.878497      -0.044751
                                                         3.780456       1.815169

                          2       1    1s               99.106169       3.454881
                                                        18.052312       3.341410
                                                         4.885660       1.041372

     RI Auxiliary Basis Set             RI_aug-SZV-MOLOPT-ae-SR_N_RI_036_s_p_d_f

       Number of orbital shell sets:                                          12
       Number of orbital shells:                                              12
       Number of primitive Cartesian functions:                               12
       Number of Cartesian basis functions:                                   42
       Number of spherical basis functions:                                   36
       Norm type:                                                              2

       Normalised Cartesian orbitals:

                        Set   Shell   Orbital            Exponent    Coefficient

                          1       1    1s                0.362114       0.332693

                          2       1    6px               0.499696       0.598857
                          2       1    6py               0.499696       0.598857
                          2       1    6pz               0.499696       0.598857

                          3       1    9dx2              0.588659       0.651135
                          3       1    9dxy              0.588659       1.127800
                          3       1    9dxz              0.588659       1.127800
                          3       1    9dy2              0.588659       0.651135
                          3       1    9dyz              0.588659       1.127800
                          3       1    9dz2              0.588659       0.651135

                          4       1    2s                0.631634       0.504963

                          5       1   12fx3              0.736605       0.740002
                          5       1   12fx2y             0.736605       1.654695
                          5       1   12fx2z             0.736605       1.654695
                          5       1   12fxy2             0.736605       1.654695
                          5       1   12fxyz             0.736605       2.866016
                          5       1   12fxz2             0.736605       1.654695
                          5       1   12fy3              0.736605       0.740002
                          5       1   12fy2z             0.736605       1.654695
                          5       1   12fyz2             0.736605       1.654695
                          5       1   12fz3              0.736605       0.740002

                          6       1    7px               0.883396       1.220771
                          6       1    7py               0.883396       1.220771
                          6       1    7pz               0.883396       1.220771

                          7       1   10dx2              1.153946       2.114628
                          7       1   10dxy              1.153946       3.662643
                          7       1   10dxz              1.153946       3.662643
                          7       1   10dy2              1.153946       2.114628
                          7       1   10dyz              1.153946       3.662643
                          7       1   10dz2              1.153946       2.114628

                          8       1    3s                2.978947       1.616059

                          9       1    8px               4.407746       9.103549
                          9       1    8py               4.407746       9.103549
                          9       1    8pz               4.407746       9.103549

                         10       1   11dx2              5.691883      34.522914
                         10       1   11dxy              5.691883      59.795442
                         10       1   11dxz              5.691883      59.795442
                         10       1   11dy2              5.691883      34.522914
                         10       1   11dyz              5.691883      59.795442
                         10       1   11dz2              5.691883      34.522914

                         11       1    4s               18.342052       6.316784

                         12       1    5s              106.308958      23.595951

       Atomic covalent radius [Angstrom]:                                  0.750

       Atomic van der Waals radius [Angstrom]:                             1.550

     The atoms of this atomic kind are PAW atoms (GAPW):
       Hard Gaussian function radius:                                      1.512
       Rho0 radius:                                                        1.512
       Maximum GTO radius used for PAW projector construction:            24.566

     GAPW Soft Basis Set                               aug-SZV-MOLOPT-ae-SR_soft

       Number of orbital shell sets:                                           2
       Number of orbital shells:                                               6
       Number of primitive Cartesian functions:                                4
       Number of Cartesian basis functions:                                   15
       Number of spherical basis functions:                                   14
       Norm type:                                                              2

       Normalised Cartesian orbitals:

                        Set   Shell   Orbital            Exponent    Coefficient

                          1       1    1s                0.112012       0.000000
                                                         0.285714       0.194997
                                                         0.878497       0.258372
                                                         3.780456      -0.193164

                          1       2    2s                0.112012       0.083551
                                                         0.285714      -0.189186
                                                         0.878497      -0.469875
                                                         3.780456      -0.002085

                          1       3    2px               0.112012       0.000000
                                                         0.285714       0.116706
                                                         0.878497       0.736704
                                                         3.780456       1.171553
                          1       3    2py               0.112012       0.000000
                                                         0.285714       0.116706
                                                         0.878497       0.736704
                                                         3.780456       1.171553
                          1       3    2pz               0.112012       0.000000
                                                         0.285714       0.116706
                                                         0.878497       0.736704
                                                         3.780456       1.171553

                          1       4    3px               0.112012       0.141957
                                                         0.285714      -0.286713
                                                         0.878497       0.074784
                                                         3.780456       0.008085
                          1       4    3py               0.112012       0.141957
                                                         0.285714      -0.286713
                                                         0.878497       0.074784
                                                         3.780456       0.008085
                          1       4    3pz               0.112012       0.141957
                                                         0.285714      -0.286713
                                                         0.878497       0.074784
                                                         3.780456       0.008085

                          1       5    3dx2              0.112012      -0.000364
                                                         0.285714       0.186009
                                                         0.878497      -0.044751
                                                         3.780456       1.815169
                          1       5    3dxy              0.112012      -0.000630
                                                         0.285714       0.322177
                                                         0.878497      -0.077512
                                                         3.780456       3.143965
                          1       5    3dxz              0.112012      -0.000630
                                                         0.285714       0.322177
                                                         0.878497      -0.077512
                                                         3.780456       3.143965
                          1       5    3dy2              0.112012      -0.000364
                                                         0.285714       0.186009
                                                         0.878497      -0.044751
                                                         3.780456       1.815169
                          1       5    3dyz              0.112012      -0.000630
                                                         0.285714       0.322177
                                                         0.878497      -0.077512
                                                         3.780456       3.143965
                          1       5    3dz2              0.112012      -0.000364
                                                         0.285714       0.186009
                                                         0.878497      -0.044751
                                                         3.780456       1.815169

                          2       1    1s         

     AE Potential information for                                            ALL

       Description:                                       All-electron potential
                                          Krack, Parrinello, PCCP 2, 2105 (2000)

       Gaussian exponent of the core charge distribution:               5.979100
       Electronic configuration (s p d ...):                           4   3   0

  2. Atomic kind: H                                     Number of atoms:       1

     Orbital Basis Set                                      aug-SZV-MOLOPT-ae-SR

       Number of orbital shell sets:                                           1
       Number of orbital shells:                                               4
       Number of primitive Cartesian functions:                                4
       Number of Cartesian basis functions:                                    6
       Number of spherical basis functions:                                    6
       Norm type:                                                              2

       Normalised Cartesian orbitals:

                        Set   Shell   Orbital            Exponent    Coefficient

                          1       1    2s                0.065428       0.000000
                                                         0.168855       0.083474
                                                         0.623914       0.267839
                                                         3.425251       0.276934

                          1       2    3s                0.065428      -0.066952
                                                         0.168855       0.261968
                                                         0.623914       0.081548
                                                         3.425251      -0.022414

                          1       3    4s                0.065428       0.165615
                                                         0.168855      -0.226449
                                                         0.623914      -0.005802
                                                         3.425251       0.005451

                          1       4    3px               0.065428       0.053063
                                                         0.168855      -0.030502
                                                         0.623914       0.062721
                                                         3.425251       0.019012
                          1       4    3py               0.065428       0.053063
                                                         0.168855      -0.030502
                                                         0.623914       0.062721
                                                         3.425251       0.019012
                          1       4    3pz               0.065428       0.053063
                                                         0.168855      -0.030502
                                                         0.623914       0.062721
                                                         3.425251       0.019012

     RI Auxiliary Basis Set             RI_aug-SZV-MOLOPT-ae-SR_N_RI_008_s_p_d_f

       Number of orbital shell sets:                                           6
       Number of orbital shells:                                               6
       Number of primitive Cartesian functions:                                6
       Number of Cartesian basis functions:                                    8
       Number of spherical basis functions:                                    8
       Norm type:                                                              2

       Normalised Cartesian orbitals:

                        Set   Shell   Orbital            Exponent    Coefficient

                          1       1    1s                0.278583       0.273291

                          2       1    6px               0.490046       0.584434
                          2       1    6py               0.490046       0.584434
                          2       1    6pz               0.490046       0.584434

                          3       1    2s                0.587968       0.478548

                          4       1    3s                1.207264       0.820846

                          5       1    4s                2.669340       1.488377

                          6       1    5s                5.239499       2.468183

       Atomic covalent radius [Angstrom]:                                  0.320

       Atomic van der Waals radius [Angstrom]:                             1.090

     AE Potential information for                                            ALL

       Description:                                       All-electron potential
                                          Krack, Parrinello, PCCP 2, 2105 (2000)

       Gaussian exponent of the core charge distribution:              12.500000
       Electronic configuration (s p d ...):                           1   0   0


 MOLECULE KIND INFORMATION


 All atoms are their own molecule, skipping detailed information


 TOTAL NUMBERS AND MAXIMUM NUMBERS

  Total number of            - Atomic kinds:                                   2
                             - Atoms:                                          2
                             - Shell sets:                                     3
                             - Shells:                                        10
                             - Primitive Cartesian functions:                 11
                             - Cartesian basis functions:                     21
                             - Spherical basis functions:                     20

  Maximum angular momentum of the orbital basis functions:                     2


 MODULE QUICKSTEP: ATOMIC COORDINATES IN ANGSTROM

   Atom Kind Element         X             Y             Z       Z(eff)     Mass
      1    1 N     7     15.518596     15.000000     15.000000   7.0000  14.0067
      2    2 H     1     14.481404     15.000000     15.000000   1.0000   1.0079



 SCF PARAMETERS         Density guess:                                    ATOMIC
                        --------------------------------------------------------
                        max_scf:                                             500
                        max_scf_history:                                       0
                        max_diis:                                              4
                        --------------------------------------------------------
                        eps_scf:                                        1.00E-06
                        eps_scf_history:                                0.00E+00
                        eps_diis:                                       1.00E-01
                        eps_eigval:                                     1.00E-05
                        --------------------------------------------------------
                        level_shift [a.u.]:                             0.000000
                        added MOs                                        16    0
                        --------------------------------------------------------
                        Mixing method:                            BROYDEN_MIXING
                                                charge density mixing in g-space
                        --------------------------------------------------------
                        No outer SCF

 PW_GRID| Information for grid number                                          1
 PW_GRID| Grid distributed over                                    24 processors
 PW_GRID| Real space group dimensions                                    24    1
 PW_GRID| the grid is blocked:                                                NO
 PW_GRID| Cutoff [a.u.]                                                    250.0
 PW_GRID| spherical cutoff:                                                   NO
 PW_GRID|   Bounds   1           -202     202                Points:         405
 PW_GRID|   Bounds   2           -202     202                Points:         405
 PW_GRID|   Bounds   3           -202     202                Points:         405
 PW_GRID| Volume element (a.u.^3)  0.2743E-02     Volume (a.u.^3)    182205.0337
 PW_GRID| Grid span                                                    FULLSPACE
 PW_GRID|   Distribution                         Average         Max         Min
 PW_GRID|   G-Vectors                          2767921.9     2768175     2767770
 PW_GRID|   G-Rays                                6834.4        6835        6834
 PW_GRID|   Real Space Points                  2767921.9     2788425     2624400

 PW_GRID| Information for grid number                                          2
 PW_GRID| Number of the reference grid                                         1
 PW_GRID| Grid distributed over                                    24 processors
 PW_GRID| Real space group dimensions                                    24    1
 PW_GRID| the grid is blocked:                                                NO
 PW_GRID| Cutoff [a.u.]                                                     83.3
 PW_GRID| spherical cutoff:                                                   NO
 PW_GRID|   Bounds   1           -120     119                Points:         240
 PW_GRID|   Bounds   2           -120     119                Points:         240
 PW_GRID|   Bounds   3           -120     119                Points:         240
 PW_GRID| Volume element (a.u.^3)  0.1318E-01     Volume (a.u.^3)    182205.0337
 PW_GRID| Grid span                                                    FULLSPACE
 PW_GRID|   Distribution                         Average         Max         Min
 PW_GRID|   G-Vectors                           576000.0      576240      575760
 PW_GRID|   G-Rays                                2400.0        2401        2399
 PW_GRID|   Real Space Points                   576000.0      576000      576000

 PW_GRID| Information for grid number                                          3
 PW_GRID| Number of the reference grid                                         1
 PW_GRID| Grid distributed over                                    24 processors
 PW_GRID| Real space group dimensions                                    24    1
 PW_GRID| the grid is blocked:                                                NO
 PW_GRID| Cutoff [a.u.]                                                     27.8
 PW_GRID| spherical cutoff:                                                   NO
 PW_GRID|   Bounds   1            -67      67                Points:         135
 PW_GRID|   Bounds   2            -67      67                Points:         135
 PW_GRID|   Bounds   3            -67      67                Points:         135
 PW_GRID| Volume element (a.u.^3)  0.7406E-01     Volume (a.u.^3)    182205.0337
 PW_GRID| Grid span                                                    FULLSPACE
 PW_GRID|   Distribution                         Average         Max         Min
 PW_GRID|   G-Vectors                           102515.6      102735      102330
 PW_GRID|   G-Rays                                 759.4         761         758
 PW_GRID|   Real Space Points                   102515.6      109350       91125

 PW_GRID| Information for grid number                                          4
 PW_GRID| Number of the reference grid                                         1
 PW_GRID| Grid distributed over                                    24 processors
 PW_GRID| Real space group dimensions                                    24    1
 PW_GRID| the grid is blocked:                                                NO
 PW_GRID| Cutoff [a.u.]                                                      9.3
 PW_GRID| spherical cutoff:                                                   NO
 PW_GRID|   Bounds   1            -40      39                Points:          80
 PW_GRID|   Bounds   2            -40      39                Points:          80
 PW_GRID|   Bounds   3            -40      39                Points:          80
 PW_GRID| Volume element (a.u.^3)  0.3559         Volume (a.u.^3)    182205.0337
 PW_GRID| Grid span                                                    FULLSPACE
 PW_GRID|   Distribution                         Average         Max         Min
 PW_GRID|   G-Vectors                            21333.3       21360       21280
 PW_GRID|   G-Rays                                 266.7         267         266
 PW_GRID|   Real Space Points                    21333.3       25600       19200

 POISSON| Solver                                                         WAVELET
 POISSON| Wavelet| Scaling function                                           40
 POISSON| Periodicity                                                       NONE

 RS_GRID| Information for grid number                                          1
 RS_GRID|   Bounds   1           -202     202                Points:         405
 RS_GRID|   Bounds   2           -202     202                Points:         405
 RS_GRID|   Bounds   3           -202     202                Points:         405
 RS_GRID| Real space distribution over                                  4 groups
 RS_GRID| Real space distribution along direction                              2
 RS_GRID| Border size                                                         34
 RS_GRID| Real space distribution over                                  6 groups
 RS_GRID| Real space distribution along direction                              3
 RS_GRID| Border size                                                         34
 RS_GRID|   Distribution                         Average         Max         Min
 RS_GRID|   Planes                                 169.2         170         169
 RS_GRID|   Distribution                         Average         Max         Min
 RS_GRID|   Planes                                 135.5         136         135

 RS_GRID| Information for grid number                                          2
 RS_GRID|   Bounds   1           -120     119                Points:         240
 RS_GRID|   Bounds   2           -120     119                Points:         240
 RS_GRID|   Bounds   3           -120     119                Points:         240
 RS_GRID| Real space distribution over                                  4 groups
 RS_GRID| Real space distribution along direction                              2
 RS_GRID| Border size                                                         37
 RS_GRID| Real space distribution over                                  6 groups
 RS_GRID| Real space distribution along direction                              3
 RS_GRID| Border size                                                         37
 RS_GRID|   Distribution                         Average         Max         Min
 RS_GRID|   Planes                                 134.0         134         134
 RS_GRID|   Distribution                         Average         Max         Min
 RS_GRID|   Planes                                 114.0         114         114

 RS_GRID| Information for grid number                                          3
 RS_GRID|   Bounds   1            -67      67                Points:         135
 RS_GRID|   Bounds   2            -67      67                Points:         135
 RS_GRID|   Bounds   3            -67      67                Points:         135
 RS_GRID| Real space fully replicated
 RS_GRID| Group size                                                           1

 RS_GRID| Information for grid number                                          4
 RS_GRID|   Bounds   1            -40      39                Points:          80
 RS_GRID|   Bounds   2            -40      39                Points:          80
 RS_GRID|   Bounds   3            -40      39                Points:          80
 RS_GRID| Real space fully replicated
 RS_GRID| Group size                                                           1

  HFX_INFO| Replica ID:                                                        1
  HFX_INFO| FRACTION:                                               0.2500000000
  HFX_INFO| Interaction Potential:                                       COULOMB
  HFX_INFO| EPS_SCHWARZ:                                                 1.0E-10
  HFX_INFO| EPS_SCHWARZ_FORCES                                           1.0E-08
  HFX_INFO| EPS_STORAGE_SCALING:                                         1.0E+00
  HFX_INFO| NBINS:                                                            64
  HFX_INFO| BLOCK_SIZE:                                                        1
  HFX_INFO| Number of periodic shells considered:                           NONE
  HFX_INFO| Number of periodic cells considered:                            NONE

 
 RI-RPA| using GPW style
 

 OVERLAP MATRIX CONDITION NUMBER
 1-Norm Condition Number (Estimate)
   CN : |A|*|A^-1|:  4.207E+000 *  1.116E+002   = 4.694E+002  Log(1-CN):  2.6715
 1-Norm and 2-Norm Condition Numbers using Diagonalization
   CN : |A|*|A^-1|:  4.207E+000 *  1.116E+002   = 4.694E+002  Log(1-CN):  2.6715
   CN : max/min ev:  2.973E+000 /  1.372E-002   = 2.168E+002  Log(2-CN):  2.3360

 Number of electrons:                                                          8
 Number of occupied orbitals:                                                  4
 Number of molecular orbitals:                                                20

 Number of orbital functions:                                                 20
 Number of independent orbital functions:                                     20

 Extrapolation method: initial_guess

 Atomic guess: The first density matrix is obtained in terms of atomic orbitals
               and electronic configurations assigned to each atomic kind

 Guess for atomic kind: N

 Electronic structure
    Total number of core electrons                                          0.00
    Total number of valence electrons                                       7.00
    Total number of electrons                                               7.00
    Multiplicity                                                   not specified
    S      2.00  2.00
    P      3.00


 *******************************************************************************
                  Iteration          Convergence                     Energy [au]
 *******************************************************************************
                          1        0.159909                     -53.340877683251
                          2        0.769146E-01                 -53.353877926770
                          3        0.463278E-03                 -53.358451509292
                          4        0.156014E-03                 -53.358451645833
                          5        0.102251E-04                 -53.358451658533
                          6        0.178265E-08                 -53.358451658590

 Energy components [Hartree]           Total Energy ::          -53.358451658590
                                        Band Energy ::          -29.695765597812
                                     Kinetic Energy ::           52.385975587247
                                   Potential Energy ::         -105.744427245837
                                      Virial (-V/T) ::            2.018563672060
                                        Core Energy ::          -72.851122194822
                                          XC Energy ::           -6.109149652554
                                     Coulomb Energy ::           25.601820188786

 Orbital energies  State     L     Occupation   Energy[a.u.]          Energy[eV]

                       1     0          2.000     -13.845221         -376.747634
                       2     0          2.000      -0.658428          -17.916731

                       1     1          3.000      -0.229489           -6.244716


 Total Electron Density at R=0:                                       126.344533

 Guess for atomic kind: H

 Electronic structure
    Total number of core electrons                                          0.00
    Total number of valence electrons                                       1.00
    Total number of electrons                                               1.00
    Multiplicity                                                   not specified
    S      1.00


 *******************************************************************************
                  Iteration          Convergence                     Energy [au]
 *******************************************************************************
                          1        0.105001E-01                  -0.442912571909
                          2        0.809393E-03                  -0.443000038014
                          3        0.126045E-03                  -0.443002205783
                          4        0.926691E-07                  -0.443002227638

 Energy components [Hartree]           Total Energy ::           -0.443002227638
                                        Band Energy ::           -0.231242105371
                                     Kinetic Energy ::            0.416655567325
                                   Potential Energy ::           -0.859657794963
                                      Virial (-V/T) ::            2.063233669195
                                        Core Energy ::           -0.493343888102
                                          XC Energy ::           -0.231659799565
                                     Coulomb Energy ::            0.282001460029

 Orbital energies  State     L     Occupation   Energy[a.u.]          Energy[eV]

                       1     0          1.000      -0.231242           -6.292418


 Total Electron Density at R=0:                                         0.184980
 Re-scaling the density matrix to get the right number of electrons
                  # Electrons              Trace(P)               Scaling factor
                            8                 8.000                        1.000


 SCF WAVEFUNCTION OPTIMIZATION

  Step     Update method      Time    Convergence         Total energy    Change
  ------------------------------------------------------------------------------

  HFX_MEM_INFO| Est. max. program size before HFX [MiB]:                    2197
  HFX_MEM_INFO| Number of cart. primitive ERI's calculated:              5879217
  HFX_MEM_INFO| Number of sph. ERI's calculated:                           73312
  HFX_MEM_INFO| Number of sph. ERI's stored in-core:                       73312
  HFX_MEM_INFO| Number of sph. ERI's stored on disk:                           0
  HFX_MEM_INFO| Number of sph. ERI's calculated on the fly:                    0
  HFX_MEM_INFO| Total memory consumption ERI's RAM [MiB]:                      1
  HFX_MEM_INFO| Whereof max-vals [MiB]:                                        1
  HFX_MEM_INFO| Total compression factor ERI's RAM:                         0.57
  HFX_MEM_INFO| Total memory consumption ERI's disk [MiB]:                     0
  HFX_MEM_INFO| Total compression factor ERI's disk:                        0.00
  HFX_MEM_INFO| Size of density/Fock matrix [MiB]:                             0
  HFX_MEM_INFO| Size of buffers [MiB]:                                         0
  HFX_MEM_INFO| Est. max. program size after HFX  [MiB]:                    2707

     1 NoMix/Diag. 0.10E+00    6.2     0.94794647       -54.3549978085 -5.44E+01
     2 Broy./Diag. 0.10E+00    4.9     0.06088563       -53.9753469839  3.80E-01
     3 Broy./Diag. 0.10E+00    4.9     0.04747581       -53.9711080432  4.24E-03
     4 Broy./Diag. 0.10E+00    5.0     0.06612576       -54.2580321920 -2.87E-01
     5 Broy./Diag. 0.10E+00    5.1     0.01773389       -54.4639872132 -2.06E-01
     6 Broy./Diag. 0.10E+00    4.9     0.01632898       -54.4616725237  2.31E-03
     7 Broy./Diag. 0.10E+00    5.0     0.01613122       -54.3965558751  6.51E-02
     8 Broy./Diag. 0.10E+00    5.1     0.00274111       -54.3637945609  3.28E-02
     9 Broy./Diag. 0.10E+00    5.2     0.02078542       -54.4076090821 -4.38E-02
    10 Broy./Diag. 0.10E+00    5.3     0.00591108       -54.4631218535 -5.55E-02
    11 Broy./Diag. 0.10E+00    5.4     0.00517489       -54.4609700922  2.15E-03
    12 Broy./Diag. 0.10E+00    5.3     0.00949359       -54.4231110984  3.79E-02
    13 Broy./Diag. 0.10E+00    5.3     0.00237241       -54.3988329521  2.43E-02
    14 Broy./Diag. 0.10E+00    5.3     0.00750455       -54.4117981629 -1.30E-02
    15 Broy./Diag. 0.10E+00    5.3     0.00453532       -54.4358643144 -2.41E-02
    16 Broy./Diag. 0.10E+00    5.3     0.00109683       -54.4451271843 -9.26E-03
    17 Broy./Diag. 0.10E+00    5.4     0.00256678       -54.4409113702  4.22E-03
    18 Broy./Diag. 0.10E+00    5.4     0.00100721       -54.4348252437  6.09E-03
    19 Broy./Diag. 0.10E+00    5.3     0.00018625       -54.4324745936  2.35E-03
    20 Broy./Diag. 0.10E+00    5.3     0.00092627       -54.4317074284  7.67E-04
    21 Broy./Diag. 0.10E+00    5.2     0.00052204       -54.4305972499  1.11E-03
    22 Broy./Diag. 0.10E+00    5.3     0.00010558       -54.4296608536  9.36E-04
    23 Broy./Diag. 0.10E+00    5.3     0.00020039       -54.4292187355  4.42E-04
    24 Broy./Diag. 0.10E+00    5.3     0.00019905       -54.4293736329 -1.55E-04
    25 Broy./Diag. 0.10E+00    5.3     0.00047538       -54.4305999256 -1.23E-03
    26 Broy./Diag. 0.10E+00    5.4     0.00054053       -54.4312005132 -6.01E-04
    27 Broy./Diag. 0.10E+00    5.3     0.00031024       -54.4309063979  2.94E-04
    28 Broy./Diag. 0.10E+00    5.4     0.00018027       -54.4308815035  2.49E-05
    29 Broy./Diag. 0.10E+00    5.3     0.00009133       -54.4308030607  7.84E-05
    30 Broy./Diag. 0.10E+00    5.3     0.00005642       -54.4305086884  2.94E-04
    31 Broy./Diag. 0.10E+00    5.3     0.00010314       -54.4304573368  5.14E-05
    32 Broy./Diag. 0.10E+00    5.3     0.00002162       -54.4304648483 -7.51E-06
    33 Broy./Diag. 0.10E+00    5.3     0.00002944       -54.4303511482  1.14E-04
    34 Broy./Diag. 0.10E+00    5.3     0.00003074       -54.4303146003  3.65E-05
    35 Broy./Diag. 0.10E+00    5.3     0.00000705       -54.4303431492 -2.85E-05
    36 Broy./Diag. 0.10E+00    5.3     0.00001947       -54.4303626378 -1.95E-05
    37 Broy./Diag. 0.10E+00    5.3     0.00001703       -54.4304330049 -7.04E-05
    38 Broy./Diag. 0.10E+00    5.3     0.00002583       -54.4304280531  4.95E-06
    39 Broy./Diag. 0.10E+00    5.3     0.00003882       -54.4303746695  5.34E-05
    40 Broy./Diag. 0.10E+00    5.3     0.00008006       -54.4303360483  3.86E-05
    41 Broy./Diag. 0.10E+00    5.3     0.00010832       -54.4303671671 -3.11E-05
    42 Broy./Diag. 0.10E+00    5.3     0.00016789       -54.4303968886 -2.97E-05
    43 Broy./Diag. 0.10E+00    5.3     0.00028914       -54.4303794953  1.74E-05
    44 Broy./Diag. 0.10E+00    5.3     0.00050456       -54.4303701983  9.30E-06
    45 Broy./Diag. 0.10E+00    5.3     0.00088385       -54.4303727879 -2.59E-06
    46 Broy./Diag. 0.10E+00    5.3     0.00154723       -54.4303745975 -1.81E-06
    47 Broy./Diag. 0.10E+00    5.3     0.00270519       -54.4303934479 -1.89E-05
    48 Broy./Diag. 0.10E+00    5.3     0.00473969       -54.4304087107 -1.53E-05
    49 Broy./Diag. 0.10E+00    5.3     0.00831936       -54.4304195490 -1.08E-05
    50 Broy./Diag. 0.10E+00    5.4     0.01455480       -54.4304462009 -2.67E-05
    51 Broy./Diag. 0.10E+00    5.3     0.02541695       -54.4304968477 -5.06E-05
    52 Broy./Diag. 0.10E+00    5.3     0.04409221       -54.4303404907  1.56E-04
    53 Broy./Diag. 0.10E+00    5.3     0.07557549       -54.4299368905  4.04E-04
    54 Broy./Diag. 0.10E+00    5.4     0.12508203       -54.4292132865  7.24E-04
    55 Broy./Diag. 0.10E+00    5.3     0.18851589       -54.4272492987  1.96E-03
    56 Broy./Diag. 0.10E+00    5.4     0.22659484       -54.4218127856  5.44E-03
    57 Broy./Diag. 0.10E+00    5.3     0.35290806       -54.4087785966  1.30E-02
    58 Broy./Diag. 0.10E+00    5.3     0.39030768       -54.3851478217  2.36E-02
    59 Broy./Diag. 0.10E+00    5.3     0.31272306       -54.3569677603  2.82E-02
    60 Broy./Diag. 0.10E+00    5.3     0.20006880       -54.3326213026  2.43E-02
    61 Broy./Diag. 0.10E+00    5.3     0.15326376       -54.3158020837  1.68E-02
    62 Broy./Diag. 0.10E+00    5.3     0.12388268       -54.3061551680  9.65E-03
    63 Broy./Diag. 0.10E+00    5.3     0.09308853       -54.3008793436  5.28E-03
    64 Broy./Diag. 0.10E+00    5.3     0.06762763       -54.2980224696  2.86E-03
    65 Broy./Diag. 0.10E+00    5.4     0.04877262       -54.2963598297  1.66E-03
    66 Broy./Diag. 0.10E+00    5.3     0.03801407       -54.2957547729  6.05E-04
    67 Broy./Diag. 0.10E+00    5.3     0.03664086       -54.2919445040  3.81E-03
    68 Broy./Diag. 0.10E+00    5.4     0.04063894       -54.2915021351  4.42E-04
    69 Broy./Diag. 0.10E+00    5.3     0.06943839       -54.3370046012 -4.55E-02
    70 Broy./Diag. 0.10E+00    5.3     0.13575437       -54.4513120155 -1.14E-01
    71 Broy./Diag. 0.10E+00    5.3     0.18549559       -54.5870508925 -1.36E-01
    72 Broy./Diag. 0.10E+00    5.3     0.18703823       -54.6033834254 -1.63E-02
    73 Broy./Diag. 0.10E+00    5.4     0.18867454       -54.5833186094  2.01E-02
    74 Broy./Diag. 0.10E+00    5.3     0.05417045       -54.5541982279  2.91E-02
    75 Broy./Diag. 0.10E+00    5.4     0.03924957       -54.5288406156  2.54E-02
    76 Broy./Diag. 0.10E+00    5.3     0.35034303       -54.5618461964 -3.30E-02
    77 Broy./Diag. 0.10E+00    5.3     0.14823012       -54.6035889424 -4.17E-02
    78 Broy./Diag. 0.10E+00    5.3     0.29294240       -54.5596146873  4.40E-02
    79 Broy./Diag. 0.10E+00    5.3     0.04717611       -54.4687351512  9.09E-02
    80 Broy./Diag. 0.10E+00    5.3     0.09271845       -54.4008482743  6.79E-02
    81 Broy./Diag. 0.10E+00    5.3     0.16993164       -54.3630722581  3.78E-02
    82 Broy./Diag. 0.10E+00    5.3     0.38863901       -54.3272060532  3.59E-02
    83 Broy./Diag. 0.10E+00    5.3     0.31337889       -54.3566654169 -2.95E-02
    84 Broy./Diag. 0.10E+00    5.3     0.04789822       -54.4043849629 -4.77E-02
    85 Broy./Diag. 0.10E+00    5.3     0.12887410       -54.4607263919 -5.63E-02
    86 Broy./Diag. 0.10E+00    5.3     0.27481340       -54.4903874132 -2.97E-02
    87 Broy./Diag. 0.10E+00    5.3     0.30989745       -54.4981620865 -7.77E-03
    88 Broy./Diag. 0.10E+00    5.3     0.21041086       -54.4929390014  5.22E-03
    89 Broy./Diag. 0.10E+00    5.3     0.18266523       -54.4837426416  9.20E-03
    90 Broy./Diag. 0.10E+00    5.4     0.26146497       -54.5534144441 -6.97E-02
    91 Broy./Diag. 0.10E+00    5.3     0.28375479       -54.5730126521 -1.96E-02
    92 Broy./Diag. 0.10E+00    5.3     0.32031043       -54.5076146126  6.54E-02
    93 Broy./Diag. 0.10E+00    5.3     0.27472618       -54.5329590236 -2.53E-02
    94 Broy./Diag. 0.10E+00    5.3     0.19217940       -54.5116767833  2.13E-02
    95 Broy./Diag. 0.10E+00    5.3     0.13232960       -54.4845109650  2.72E-02
    96 Broy./Diag. 0.10E+00    5.3     0.08248682       -54.5059040350 -2.14E-02
    97 Broy./Diag. 0.10E+00    5.3     0.05428925       -54.5325377510 -2.66E-02
    98 Broy./Diag. 0.10E+00    5.3     0.05356332       -54.5474769569 -1.49E-02
    99 Broy./Diag. 0.10E+00    5.3     0.06532213       -54.5453564397  2.12E-03
   100 Broy./Diag. 0.10E+00    5.3     0.08073565       -54.5393447366  6.01E-03
   101 Broy./Diag. 0.10E+00    5.3     0.09939345       -54.5338327547  5.51E-03
   102 Broy./Diag. 0.10E+00    5.3     0.14034745       -54.5436591418 -9.83E-03
   103 Broy./Diag. 0.10E+00    5.3     0.16854006       -54.6015551643 -5.79E-02
   104 Broy./Diag. 0.10E+00    5.4     0.32951160       -54.5998562320  1.70E-03
   105 Broy./Diag. 0.10E+00    5.3     0.33700090       -54.6476581875 -4.78E-02
   106 Broy./Diag. 0.10E+00    5.3     0.26181484       -54.6619478879 -1.43E-02
   107 Broy./Diag. 0.10E+00    5.4     0.09630851       -54.6354433038  2.65E-02
   108 Broy./Diag. 0.10E+00    5.3     0.06721696       -54.5836609818  5.18E-02
   109 Broy./Diag. 0.10E+00    5.3     0.03890954       -54.5723520715  1.13E-02
   110 Broy./Diag. 0.10E+00    5.3     0.01263801       -54.5478934826  2.45E-02
   111 Broy./Diag. 0.10E+00    5.3     0.00574020       -54.5331861310  1.47E-02
   112 Broy./Diag. 0.10E+00    5.3     0.01631176       -54.5146297837  1.86E-02
   113 Broy./Diag. 0.10E+00    5.3     0.10363789       -54.4341261677  8.05E-02
   114 Broy./Diag. 0.10E+00    5.3     0.12608286       -54.3415474799  9.26E-02
   115 Broy./Diag. 0.10E+00    5.3     0.11921730       -54.3053442380  3.62E-02
   116 Broy./Diag. 0.10E+00    5.3     0.14565862       -54.3853299835 -8.00E-02
   117 Broy./Diag. 0.10E+00    5.3     0.01257779       -54.4307384378 -4.54E-02
   118 Broy./Diag. 0.10E+00    5.3     0.02616284       -54.4512504561 -2.05E-02
   119 Broy./Diag. 0.10E+00    5.3     0.01500288       -54.4812782984 -3.00E-02
   120 Broy./Diag. 0.10E+00    5.3     0.02661482       -54.4912819026 -1.00E-02
   121 Broy./Diag. 0.10E+00    5.3     0.02591818       -54.4703010068  2.10E-02
   122 Broy./Diag. 0.10E+00    5.3     0.04490640       -54.4486159326  2.17E-02
   123 Broy./Diag. 0.10E+00    5.3     0.04900087       -54.4427974140  5.82E-03
   124 Broy./Diag. 0.10E+00    5.4     0.09466764       -54.4412789377  1.52E-03
   125 Broy./Diag. 0.10E+00    5.3     0.15524597       -54.4425061651 -1.23E-03
   126 Broy./Diag. 0.10E+00    5.3     0.26388795       -54.4418393861  6.67E-04
   127 Broy./Diag. 0.10E+00    5.3     0.36158138       -54.4330953191  8.74E-03
   128 Broy./Diag. 0.10E+00    5.3     0.32306462       -54.4115208313  2.16E-02
   129 Broy./Diag. 0.10E+00    5.4     0.29443810       -54.3883724417  2.31E-02
   130 Broy./Diag. 0.10E+00    5.3     0.27319888       -54.3717267412  1.66E-02
   131 Broy./Diag. 0.10E+00    5.3     0.19867552       -54.3539246152  1.78E-02
   132 Broy./Diag. 0.10E+00    5.3     0.16404382       -54.3415837374  1.23E-02
   133 Broy./Diag. 0.10E+00    5.3     0.13068544       -54.3371383262  4.45E-03
   134 Broy./Diag. 0.10E+00    5.3     0.11803562       -54.3388403015 -1.70E-03
   135 Broy./Diag. 0.10E+00    5.3     0.10607599       -54.3461534367 -7.31E-03
   136 Broy./Diag. 0.10E+00    5.3     0.10408657       -54.3568404286 -1.07E-02
   137 Broy./Diag. 0.10E+00    5.3     0.13898945       -54.3700204006 -1.32E-02
   138 Broy./Diag. 0.10E+00    5.3     0.17255742       -54.3932383398 -2.32E-02
   139 Broy./Diag. 0.10E+00    5.3     0.17285778       -54.4404413986 -4.72E-02
   140 Broy./Diag. 0.10E+00    5.4     0.09720544       -54.5229620724 -8.25E-02
   141 Broy./Diag. 0.10E+00    5.4     0.09392001       -54.4744475568  4.85E-02
   142 Broy./Diag. 0.10E+00    5.3     0.06598847       -54.4576284188  1.68E-02
   143 Broy./Diag. 0.10E+00    5.3     0.07899439       -54.4636468846 -6.02E-03
   144 Broy./Diag. 0.10E+00    5.3     0.10917155       -54.5090681908 -4.54E-02
   145 Broy./Diag. 0.10E+00    5.3     0.05634928       -54.5697503001 -6.07E-02
   146 Broy./Diag. 0.10E+00    5.3     0.02648328       -54.5982110554 -2.85E-02
   147 Broy./Diag. 0.10E+00    5.3     0.03485928       -54.5945911705  3.62E-03
   148 Broy./Diag. 0.10E+00    5.4     0.04396392       -54.5285360083  6.61E-02
   149 Broy./Diag. 0.10E+00    5.3     0.01270679       -54.4745490706  5.40E-02
   150 Broy./Diag. 0.10E+00    5.3     0.01235530       -54.4667788877  7.77E-03
   151 Broy./Diag. 0.10E+00    5.3     0.00358182       -54.4645020287  2.28E-03
   152 Broy./Diag. 0.10E+00    5.3     0.04387412       -54.4589888742  5.51E-03
   153 Broy./Diag. 0.10E+00    5.4     0.00832613       -54.4711033112 -1.21E-02
   154 Broy./Diag. 0.10E+00    5.3     0.00898894       -54.4725286209 -1.43E-03
   155 Broy./Diag. 0.10E+00    5.3     0.00355873       -54.4667420048  5.79E-03
   156 Broy./Diag. 0.10E+00    5.3     0.00304275       -54.4564920201  1.02E-02
   157 Broy./Diag. 0.10E+00    5.3     0.00509177       -54.4482788317  8.21E-03
   158 Broy./Diag. 0.10E+00    5.3     0.00399466       -54.4407777291  7.50E-03
   159 Broy./Diag. 0.10E+00    5.3     0.01006045       -54.4373309459  3.45E-03
   160 Broy./Diag. 0.10E+00    5.3     0.00120147       -54.4332235875  4.11E-03
   161 Broy./Diag. 0.10E+00    5.3     0.00290610       -54.4288948733  4.33E-03
   162 Broy./Diag. 0.10E+00    5.3     0.00687892       -54.4289092453 -1.44E-05
   163 Broy./Diag. 0.10E+00    5.3     0.00665305       -54.4295227545 -6.14E-04
   164 Broy./Diag. 0.10E+00    5.3     0.00864490       -54.4281121194  1.41E-03
   165 Broy./Diag. 0.10E+00    5.3     0.00473218       -54.4298214655 -1.71E-03
   166 Broy./Diag. 0.10E+00    5.3     0.00227872       -54.4311178026 -1.30E-03
   167 Broy./Diag. 0.10E+00    5.3     0.00317588       -54.4315154190 -3.98E-04
   168 Broy./Diag. 0.10E+00    5.3     0.00276553       -54.4309944062  5.21E-04
   169 Broy./Diag. 0.10E+00    5.4     0.00886585       -54.4290496846  1.94E-03
   170 Broy./Diag. 0.10E+00    5.4     0.00440920       -54.4301221404 -1.07E-03
   171 Broy./Diag. 0.10E+00    5.3     0.00383703       -54.4310747717 -9.53E-04
   172 Broy./Diag. 0.10E+00    5.3     0.00337024       -54.4315757086 -5.01E-04
   173 Broy./Diag. 0.10E+00    5.3     0.00025226       -54.4311904609  3.85E-04
   174 Broy./Diag. 0.10E+00    5.3     0.00153166       -54.4304773204  7.13E-04
   175 Broy./Diag. 0.10E+00    5.3     0.00049108       -54.4297942951  6.83E-04
   176 Broy./Diag. 0.10E+00    5.3     0.00015845       -54.4297261066  6.82E-05
   177 Broy./Diag. 0.10E+00    5.3     0.00085337       -54.4300632931 -3.37E-04
   178 Broy./Diag. 0.10E+00    5.3     0.00054387       -54.4303865304 -3.23E-04
   179 Broy./Diag. 0.10E+00    5.4     0.00237941       -54.4305790592 -1.93E-04
   180 Broy./Diag. 0.10E+00    5.3     0.00089954       -54.4308769440 -2.98E-04
   181 Broy./Diag. 0.10E+00    5.3     0.00011456       -54.4310671758 -1.90E-04
   182 Broy./Diag. 0.10E+00    5.3     0.00023675       -54.4310773946 -1.02E-05
   183 Broy./Diag. 0.10E+00    5.3     0.00093618       -54.4308640208  2.13E-04
   184 Broy./Diag. 0.10E+00    5.3     0.00077769       -54.4306259892  2.38E-04
   185 Broy./Diag. 0.10E+00    5.3     0.00028202       -54.4304629615  1.63E-04
   186 Broy./Diag. 0.10E+00    5.3     0.00070547       -54.4303741500  8.88E-05
   187 Broy./Diag. 0.10E+00    5.3     0.00031738       -54.4304101918 -3.60E-05
   188 Broy./Diag. 0.10E+00    5.3     0.00014911       -54.4304711184 -6.09E-05
   189 Broy./Diag. 0.10E+00    5.3     0.00049974       -54.4304928377 -2.17E-05
   190 Broy./Diag. 0.10E+00    5.3     0.00080893       -54.4305018376 -9.00E-06
   191 Broy./Diag. 0.10E+00    5.3     0.00111479       -54.4304996891  2.15E-06
   192 Broy./Diag. 0.10E+00    5.3     0.00210230       -54.4304915666  8.12E-06
   193 Broy./Diag. 0.10E+00    5.3     0.00344612       -54.4305008745 -9.31E-06
   194 Broy./Diag. 0.10E+00    5.4     0.00588938       -54.4305227805 -2.19E-05
   195 Broy./Diag. 0.10E+00    5.3     0.01011792       -54.4306082449 -8.55E-05
   196 Broy./Diag. 0.10E+00    5.3     0.01777599       -54.4307174627 -1.09E-04
   197 Broy./Diag. 0.10E+00    5.3     0.03374387       -54.4307337863 -1.63E-05
   198 Broy./Diag. 0.10E+00    5.3     0.06384172       -54.4305278116  2.06E-04
   199 Broy./Diag. 0.10E+00    5.3     0.11491206       -54.4295884290  9.39E-04
   200 Broy./Diag. 0.10E+00    5.3     0.19297754       -54.4275671275  2.02E-03
   201 Broy./Diag. 0.10E+00    5.3     0.29389948       -54.4226260502  4.94E-03
   202 Broy./Diag. 0.10E+00    5.3     0.33515409       -54.4106928708  1.19E-02
   203 Broy./Diag. 0.10E+00    5.3     0.30937212       -54.3888013147  2.19E-02
   204 Broy./Diag. 0.10E+00    5.3     0.33326306       -54.3607436888  2.81E-02
   205 Broy./Diag. 0.10E+00    5.4     0.27208416       -54.3353163561  2.54E-02
   206 Broy./Diag. 0.10E+00    5.3     0.19284017       -54.3179877993  1.73E-02
   207 Broy./Diag. 0.10E+00    5.3     0.12585845       -54.3072320775  1.08E-02
   208 Broy./Diag. 0.10E+00    5.3     0.07991375       -54.3004989798  6.73E-03
   209 Broy./Diag. 0.10E+00    5.3     0.05143308       -54.2972144847  3.28E-03
   210 Broy./Diag. 0.10E+00    5.3     0.02905908       -54.2965198538  6.95E-04
   211 Broy./Diag. 0.10E+00    5.3     0.00514643       -54.3025221140 -6.00E-03
   212 Broy./Diag. 0.10E+00    5.3     0.04643856       -54.2932907410  9.23E-03
   213 Broy./Diag. 0.10E+00    5.3     0.17222831       -54.2953844764 -2.09E-03
   214 Broy./Diag. 0.10E+00    5.3     0.30929897       -54.2649519427  3.04E-02
   215 Broy./Diag. 0.10E+00    5.3     0.39270759       -54.2405086266  2.44E-02

 *** WARNING in pw/ps_wavelet_methods.F:238 :: Density non-zero on the ***
 *** edges of the unit cell: wrong results in WAVELET solver           ***

   216 Broy./Diag. 0.10E+00    5.3     0.21941628       -54.1542918911  8.62E-02
   217 Broy./Diag. 0.10E+00    5.3     0.08075927       -54.0370163884  1.17E-01
   218 Broy./Diag. 0.10E+00    5.3     0.06151945       -53.9242880485  1.13E-01

 *** WARNING in pw/ps_wavelet_methods.F:238 :: Density non-zero on the ***
 *** edges of the unit cell: wrong results in WAVELET solver           ***

   219 Broy./Diag. 0.10E+00    5.4     0.17650273       -54.4315807020 -5.07E-01

 *** WARNING in pw/ps_wavelet_methods.F:238 :: Density non-zero on the ***
 *** edges of the unit cell: wrong results in WAVELET solver           ***

   220 Broy./Diag. 0.10E+00    5.3     0.20881961       -54.1130696921  3.19E-01
   221 Broy./Diag. 0.10E+00    5.3     0.50931397       -53.5070870490  6.06E-01

 *** WARNING in pw/ps_wavelet_methods.F:238 :: Density non-zero on the ***
 *** edges of the unit cell: wrong results in WAVELET solver           ***

   222 Broy./Diag. 0.10E+00    5.3     0.40384167       -53.5843017519 -7.72E-02

 *** WARNING in pw/ps_wavelet_methods.F:238 :: Density non-zero on the ***
 *** edges of the unit cell: wrong results in WAVELET solver           ***

   223 Broy./Diag. 0.10E+00    5.3     0.16696830       -53.6023896340 -1.81E-02

 *** WARNING in pw/ps_wavelet_methods.F:238 :: Density non-zero on the ***
 *** edges of the unit cell: wrong results in WAVELET solver           ***

   224 Broy./Diag. 0.10E+00    5.4     0.22809006       -53.4479856733  1.54E-01
   225 Broy./Diag. 0.10E+00    5.4     0.03466812       -53.5620310234 -1.14E-01
   226 Broy./Diag. 0.10E+00    5.3     0.01412055       -53.6090607184 -4.70E-02
   227 Broy./Diag. 0.10E+00    5.3     0.01576703       -53.6126713501 -3.61E-03
   228 Broy./Diag. 0.10E+00    5.3     0.00275136       -53.6148075061 -2.14E-03

 *** WARNING in pw/ps_wavelet_methods.F:238 :: Density non-zero on the ***
 *** edges of the unit cell: wrong results in WAVELET solver           ***

   229 Broy./Diag. 0.10E+00    5.3     0.26065735       -54.2745238109 -6.60E-01

 *** WARNING in pw/ps_wavelet_methods.F:238 :: Density non-zero on the ***
 *** edges of the unit cell: wrong results in WAVELET solver           ***

   230 Broy./Diag. 0.10E+00    5.3     0.08575017       -54.0084215721  2.66E-01

 *** WARNING in pw/ps_wavelet_methods.F:238 :: Density non-zero on the ***
 *** edges of the unit cell: wrong results in WAVELET solver           ***

   231 Broy./Diag. 0.10E+00    5.3     0.73075167       -53.8832965608  1.25E-01

 *** WARNING in pw/ps_wavelet_methods.F:238 :: Density non-zero on the ***
 *** edges of the unit cell: wrong results in WAVELET solver           ***

   232 Broy./Diag. 0.10E+00    5.3     0.14506218       -54.0213133476 -1.38E-01

 *** WARNING in pw/ps_wavelet_methods.F:238 :: Density non-zero on the ***
 *** edges of the unit cell: wrong results in WAVELET solver           ***

   233 Broy./Diag. 0.10E+00    5.3     0.15578151       -53.3179064548  7.03E-01

 *** WARNING in pw/ps_wavelet_methods.F:238 :: Density non-zero on the ***
 *** edges of the unit cell: wrong results in WAVELET solver           ***

   234 Broy./Diag. 0.10E+00    5.3     0.09774361       -53.0419345210  2.76E-01
   235 Broy./Diag. 0.10E+00    5.3     0.28338447       -52.7689758453  2.73E-01
   236 Broy./Diag. 0.10E+00    5.3     0.20730594       -53.7222463699 -9.53E-01
   237 Broy./Diag. 0.10E+00    5.3     0.12977078       -54.3077508359 -5.86E-01
   238 Broy./Diag. 0.10E+00    5.3     0.06292497       -54.5582898652 -2.51E-01
   239 Broy./Diag. 0.10E+00    5.3     0.09554004       -54.6033632444 -4.51E-02
   240 Broy./Diag. 0.10E+00    5.3     0.23978620       -54.5884093502  1.50E-02
   241 Broy./Diag. 0.10E+00    5.3     0.35959838       -54.5898686067 -1.46E-03
   242 Broy./Diag. 0.10E+00    5.3     0.37369643       -54.5735134622  1.64E-02
   243 Broy./Diag. 0.10E+00    5.3     0.25504076       -54.5359747844  3.75E-02
   244 Broy./Diag. 0.10E+00    5.4     0.22777064       -54.4854199119  5.06E-02
   245 Broy./Diag. 0.10E+00    5.3     0.22473436       -54.4671459379  1.83E-02
   246 Broy./Diag. 0.10E+00    5.3     0.16966620       -54.4612961632  5.85E-03
   247 Broy./Diag. 0.10E+00    5.3     0.11624866       -54.4095606298  5.17E-02
   248 Broy./Diag. 0.10E+00    5.3     0.08466869       -54.3425021097  6.71E-02
   249 Broy./Diag. 0.10E+00    5.3     0.04105960       -54.3209506224  2.16E-02
   250 Broy./Diag. 0.10E+00    5.3     0.06181635       -54.3487068036 -2.78E-02
   251 Broy./Diag. 0.10E+00    5.3     0.23715294       -54.5697890020 -2.21E-01

 *** WARNING in pw/ps_wavelet_methods.F:238 :: Density non-zero on the ***
 *** edges of the unit cell: wrong results in WAVELET solver           ***

   252 Broy./Diag. 0.10E+00    5.3     0.15997984       -54.6934877042 -1.24E-01
   253 Broy./Diag. 0.10E+00    5.3     0.07306063       -54.5240040631  1.69E-01
   254 Broy./Diag. 0.10E+00    5.3     0.17675090       -54.4066939525  1.17E-01
   255 Broy./Diag. 0.10E+00    5.4     0.24783165       -54.3830431963  2.37E-02
   256 Broy./Diag. 0.10E+00    5.3     0.17992482       -54.3824006386  6.43E-04
   257 Broy./Diag. 0.10E+00    5.3     0.08257573       -54.2915148790  9.09E-02
   258 Broy./Diag. 0.10E+00    5.3     0.04176937       -54.2944185974 -2.90E-03
   259 Broy./Diag. 0.10E+00    5.3     0.06567113       -54.3663002472 -7.19E-02
   260 Broy./Diag. 0.10E+00    5.4     0.13035932       -54.4164845119 -5.02E-02
   261 Broy./Diag. 0.10E+00    5.3     0.07036630       -54.4292314480 -1.27E-02
   262 Broy./Diag. 0.10E+00    5.3     0.02563901       -54.4370292979 -7.80E-03
   263 Broy./Diag. 0.10E+00    5.3     0.03457195       -54.4371151699 -8.59E-05
   264 Broy./Diag. 0.10E+00    5.3     0.05245385       -54.4521926420 -1.51E-02
   265 Broy./Diag. 0.10E+00    5.3     0.00697949       -54.4465062292  5.69E-03
   266 Broy./Diag. 0.10E+00    5.3     0.00123479       -54.4404971937  6.01E-03
   267 Broy./Diag. 0.10E+00    5.3     0.00169243       -54.4377135602  2.78E-03
   268 Broy./Diag. 0.10E+00    5.3     0.00182439       -54.4342457933  3.47E-03
   269 Broy./Diag. 0.10E+00    5.3     0.00037965       -54.4326905671  1.56E-03
   270 Broy./Diag. 0.10E+00    5.4     0.00096631       -54.4318489767  8.42E-04
   271 Broy./Diag. 0.10E+00    5.3     0.00557604       -54.4329072191 -1.06E-03
   272 Broy./Diag. 0.10E+00    5.5     0.00340494       -54.4346189487 -1.71E-03
   273 Broy./Diag. 0.10E+00    5.3     0.00483212       -54.4351591991 -5.40E-04
   274 Broy./Diag. 0.10E+00    5.3     0.01107889       -54.4353727523 -2.14E-04
   275 Broy./Diag. 0.10E+00    5.3     0.01893950       -54.4356789408 -3.06E-04
   276 Broy./Diag. 0.10E+00    5.3     0.03018963       -54.4355566880  1.22E-04
   277 Broy./Diag. 0.10E+00    5.3     0.04908322       -54.4350883116  4.68E-04
   278 Broy./Diag. 0.10E+00    5.3     0.08161565       -54.4343490675  7.39E-04
   279 Broy./Diag. 0.10E+00    5.3     0.13471846       -54.4332275566  1.12E-03
   280 Broy./Diag. 0.10E+00    5.3     0.20709337       -54.4313979276  1.83E-03
   281 Broy./Diag. 0.10E+00    5.3     0.23664699       -54.4252444445  6.15E-03
   282 Broy./Diag. 0.10E+00    5.3     0.36496749       -54.4089353574  1.63E-02
   283 Broy./Diag. 0.10E+00    5.3     0.38149132       -54.3826646058  2.63E-02
   284 Broy./Diag. 0.10E+00    5.3     0.29462956       -54.3540145552  2.87E-02
   285 Broy./Diag. 0.10E+00    5.3     0.18790508       -54.3304496737  2.36E-02
   286 Broy./Diag. 0.10E+00    5.3     0.14445016       -54.3148920155  1.56E-02
   287 Broy./Diag. 0.10E+00    5.3     0.11960225       -54.3058140661  9.08E-03
   288 Broy./Diag. 0.10E+00    5.3     0.09387300       -54.3004447120  5.37E-03
   289 Broy./Diag. 0.10E+00    5.4     0.07053974       -54.2967971102  3.65E-03
   290 Broy./Diag. 0.10E+00    5.3     0.05945130       -54.2942190231  2.58E-03
   291 Broy./Diag. 0.10E+00    5.3     0.08756178       -54.2879123937  6.31E-03
   292 Broy./Diag. 0.10E+00    5.3     0.15809675       -54.2719022367  1.60E-02
   293 Broy./Diag. 0.10E+00    5.3     0.20878719       -54.2527057762  1.92E-02
[...]

 *** WARNING in pw/ps_wavelet_methods.F:238 :: Density non-zero on the ***
 *** edges of the unit cell: wrong results in WAVELET solver           ***

   454 Broy./Diag. 0.10E+00    5.3     0.30311446       -54.5877636786 -4.67E-02

 *** WARNING in pw/ps_wavelet_methods.F:238 :: Density non-zero on the ***
 *** edges of the unit cell: wrong results in WAVELET solver           ***

   455 Broy./Diag. 0.10E+00    5.3     0.32568057       -54.6362482974 -4.85E-02

 *** WARNING in pw/ps_wavelet_methods.F:238 :: Density non-zero on the ***
 *** edges of the unit cell: wrong results in WAVELET solver           ***

   456 Broy./Diag. 0.10E+00    5.3     0.39817044       -54.6140156009  2.22E-02

 *** WARNING in pw/ps_wavelet_methods.F:238 :: Density non-zero on the ***
 *** edges of the unit cell: wrong results in WAVELET solver           ***

   457 Broy./Diag. 0.10E+00    5.3     0.31997650       -54.5702589348  4.38E-02

 *** WARNING in pw/ps_wavelet_methods.F:238 :: Density non-zero on the ***
 *** edges of the unit cell: wrong results in WAVELET solver           ***

   458 Broy./Diag. 0.10E+00    5.3     0.17969209       -54.5411125026  2.91E-02

 *** WARNING in pw/ps_wavelet_methods.F:238 :: Density non-zero on the ***
 *** edges of the unit cell: wrong results in WAVELET solver           ***

   459 Broy./Diag. 0.10E+00    5.3     0.14629734       -54.5609856609 -1.99E-02

 *** WARNING in pw/ps_wavelet_methods.F:238 :: Density non-zero on the ***
 *** edges of the unit cell: wrong results in WAVELET solver           ***

   460 Broy./Diag. 0.10E+00    5.3     0.12534541       -54.5243408481  3.66E-02

 *** WARNING in pw/ps_wavelet_methods.F:238 :: Density non-zero on the ***
 *** edges of the unit cell: wrong results in WAVELET solver           ***

   461 Broy./Diag. 0.10E+00    5.3     0.03655329       -54.4887602892  3.56E-02

 *** WARNING in pw/ps_wavelet_methods.F:238 :: Density non-zero on the ***
 *** edges of the unit cell: wrong results in WAVELET solver           ***

   462 Broy./Diag. 0.10E+00    5.3     0.06137913       -54.5039024658 -1.51E-02

 *** WARNING in pw/ps_wavelet_methods.F:238 :: Density non-zero on the ***
 *** edges of the unit cell: wrong results in WAVELET solver           ***

   463 Broy./Diag. 0.10E+00    5.3     0.05350969       -54.5309202549 -2.70E-02

 *** WARNING in pw/ps_wavelet_methods.F:238 :: Density non-zero on the ***
 *** edges of the unit cell: wrong results in WAVELET solver           ***

   464 Broy./Diag. 0.10E+00    5.3     0.22417796       -54.5188793499  1.20E-02

 *** WARNING in pw/ps_wavelet_methods.F:238 :: Density non-zero on the ***
 *** edges of the unit cell: wrong results in WAVELET solver           ***

   465 Broy./Diag. 0.10E+00    5.3     0.25983022       -54.5168585440  2.02E-03

 *** WARNING in pw/ps_wavelet_methods.F:238 :: Density non-zero on the ***
 *** edges of the unit cell: wrong results in WAVELET solver           ***

   466 Broy./Diag. 0.10E+00    5.3     0.15582899       -54.5547073116 -3.78E-02
   467 Broy./Diag. 0.10E+00    5.3     0.07002153       -54.5797235572 -2.50E-02
   468 Broy./Diag. 0.10E+00    5.3     0.07774168       -54.6023809537 -2.27E-02
   469 Broy./Diag. 0.10E+00    5.3     0.01823609       -54.5936199157  8.76E-03
   470 Broy./Diag. 0.10E+00    5.4     0.00366502       -54.6072927359 -1.37E-02
   471 Broy./Diag. 0.10E+00    5.3     0.02275856       -54.5651896601  4.21E-02
   472 Broy./Diag. 0.10E+00    5.3     0.01591608       -54.4885787427  7.66E-02
   473 Broy./Diag. 0.10E+00    5.3     0.00669155       -54.4451996151  4.34E-02
   474 Broy./Diag. 0.10E+00    5.3     0.00144629       -54.4334325679  1.18E-02
   475 Broy./Diag. 0.10E+00    5.3     0.01712444       -54.4422644511 -8.83E-03
   476 Broy./Diag. 0.10E+00    5.4     0.02815278       -54.4430844730 -8.20E-04
   477 Broy./Diag. 0.10E+00    5.3     0.02644143       -54.4379246502  5.16E-03
   478 Broy./Diag. 0.10E+00    5.3     0.06949010       -54.4409057677 -2.98E-03
   479 Broy./Diag. 0.10E+00    5.3     0.12162788       -54.4437967407 -2.89E-03
   480 Broy./Diag. 0.10E+00    5.3     0.20524467       -54.4449720897 -1.18E-03
   481 Broy./Diag. 0.10E+00    5.4     0.29590433       -54.4395252658  5.45E-03
   482 Broy./Diag. 0.10E+00    5.3     0.29943822       -54.4261397486  1.34E-02
   483 Broy./Diag. 0.10E+00    5.3     0.35257653       -54.3979971283  2.81E-02
   484 Broy./Diag. 0.10E+00    5.3     0.33949838       -54.3655603270  3.24E-02
   485 Broy./Diag. 0.10E+00    5.3     0.25824933       -54.3409675561  2.46E-02
   486 Broy./Diag. 0.10E+00    5.3     0.17443699       -54.3271931301  1.38E-02
   487 Broy./Diag. 0.10E+00    5.3     0.10702500       -54.3215355511  5.66E-03
   488 Broy./Diag. 0.10E+00    5.3     0.07025566       -54.3193003520  2.24E-03
   489 Broy./Diag. 0.10E+00    5.3     0.05070856       -54.3264818824 -7.18E-03
   490 Broy./Diag. 0.10E+00    5.3     0.03415511       -54.3302831439 -3.80E-03
   491 Broy./Diag. 0.10E+00    5.3     0.01395122       -54.3520140426 -2.17E-02
   492 Broy./Diag. 0.10E+00    5.4     0.02410543       -54.3366663760  1.53E-02
   493 Broy./Diag. 0.10E+00    5.3     0.02535038       -54.3894737819 -5.28E-02

 *** WARNING in pw/ps_wavelet_methods.F:238 :: Density non-zero on the ***
 *** edges of the unit cell: wrong results in WAVELET solver           ***

   494 Broy./Diag. 0.10E+00    5.3     0.15529549       -54.6455528026 -2.56E-01

 *** WARNING in pw/ps_wavelet_methods.F:238 :: Density non-zero on the ***
 *** edges of the unit cell: wrong results in WAVELET solver           ***

   495 Broy./Diag. 0.10E+00    5.3     0.37430854       -54.7188889593 -7.33E-02

 *** WARNING in pw/ps_wavelet_methods.F:238 :: Density non-zero on the ***
 *** edges of the unit cell: wrong results in WAVELET solver           ***

   496 Broy./Diag. 0.10E+00    5.4     0.32522772       -54.6534893461  6.54E-02

 *** WARNING in pw/ps_wavelet_methods.F:238 :: Density non-zero on the ***
 *** edges of the unit cell: wrong results in WAVELET solver           ***

   497 Broy./Diag. 0.10E+00    5.3     0.17041856       -54.6126694932  4.08E-02

 *** WARNING in pw/ps_wavelet_methods.F:238 :: Density non-zero on the ***
 *** edges of the unit cell: wrong results in WAVELET solver           ***

   498 Broy./Diag. 0.10E+00    5.4     0.04564951       -54.6945076614 -8.18E-02

 *** WARNING in pw/ps_wavelet_methods.F:238 :: Density non-zero on the ***
 *** edges of the unit cell: wrong results in WAVELET solver           ***

   499 Broy./Diag. 0.10E+00    5.3     0.25498171       -54.6871956103  7.31E-03
   500 Broy./Diag. 0.10E+00    5.3     0.44066622       -54.7740586256 -8.69E-02

  Leaving inner SCF loop after reaching   500 steps.


  Electronic density on regular grids:         -6.1266240214        1.8733759786
  Core density on regular grids:                1.0000000000       -7.0000000000
  Hard and soft densities (Lebedev):          -10.4771948940       -8.5959448713
  Total Rho_soft + Rho1_hard - Rho1_soft       -8.0078740441
  Total charge density (r-space):              -7.0078740441
  Total Rho_soft + Rho0_soft (g-space):        -0.0078740575

  Overlap energy of the core charge distribution:               0.00000008866015
  Self energy of the core charge distribution:                -49.21005070205399
  Core Hamiltonian energy:                                     -6.87326171005097
  Hartree energy:                                              17.92103188489688
  Exchange-correlation energy:                                 -2.27029987916431
  Hartree-Fock Exchange energy:                                -1.69415770821348

  GAPW| Exc from hard and soft atomic rho1:                    -3.13743774277044
  GAPW| local Eh = 1 center integrals:                         -9.50988285689867

  Total energy:                                               -54.77405862559484

 *******************************************************************************
 *   ___                                                                       *
 *  /   \                                                                      *
 * [ABORT]                                                                     *
 *  \___/     SCF run NOT converged. To continue the calculation regardless,   *
 *    |             please set the keyword IGNORE_CONVERGENCE_FAILURE.         *
 *  O/|                                                                        *
 * /| |                                                                        *
 * / \                                                            qs_scf.F:611 *
 *******************************************************************************


 ===== Routine Calling Stack ===== 

            3 scf_env_do_scf
            2 qs_energies
            1 CP2K

 *******************************************************************************
 *   ___                                                                       *
 *  /   \                                                                      *
 * [ABORT]                                                                     *
 *  \___/     SCF run NOT converged. To continue the calculation regardless,   *
 *    |             please set the keyword IGNORE_CONVERGENCE_FAILURE.         *
 *  O/|                                                                        *
 * /| |                                                                        *
 * / \                                                            qs_scf.F:611 *
 *******************************************************************************


 ===== Routine Calling Stack ===== 

            3 scf_env_do_scf
            2 qs_energies
            1 CP2K

 *******************************************************************************
 *   ___                                                                       *
 *  /   \                                                                      *
 * [ABORT]                                                                     *
 *  \___/     SCF run NOT converged. To continue the calculation regardless,   *
 *    |             please set the keyword IGNORE_CONVERGENCE_FAILURE.         *
 *  O/|                                                                        *
 * /| |                                                                        *
 * / \                                                            qs_scf.F:611 *
 *******************************************************************************


 ===== Routine Calling Stack ===== 

            3 scf_env_do_scf
            2 qs_energies
            1 CP2K

 *******************************************************************************
 *   ___                                                                       *
 *  /   \                                                                      *
 * [ABORT]                                                                     *
 *  \___/     SCF run NOT converged. To continue the calculation regardless,   *
 *    |             please set the keyword IGNORE_CONVERGENCE_FAILURE.         *
 *  O/|                                                                        *
 * /| |                                                                        *
 * / \                                                            qs_scf.F:611 *
 *******************************************************************************


 ===== Routine Calling Stack ===== 

            3 scf_env_do_scf
            2 qs_energies
            1 CP2K

 *******************************************************************************
 *   ___                                                                       *
 *  /   \                                                                      *
 * [ABORT]                                                                     *
 *  \___/     SCF run NOT converged. To continue the calculation regardless,   *
 *    |             please set the keyword IGNORE_CONVERGENCE_FAILURE.         *
 *  O/|                                                                        *
 * /| |                                                                        *
 * / \                                                            qs_scf.F:611 *
 *******************************************************************************


 ===== Routine Calling Stack ===== 

            3 scf_env_do_scf
            2 qs_energies
            1 CP2K

 *******************************************************************************
 *   ___                                                                       *
 *  /   \                                                                      *
 * [ABORT]                                                                     *
 *  \___/     SCF run NOT converged. To continue the calculation regardless,   *
 *    |             please set the keyword IGNORE_CONVERGENCE_FAILURE.         *
 *  O/|                                                                        *
 * /| |                                                                        *
 * / \                                                            qs_scf.F:611 *
 *******************************************************************************


 ===== Routine Calling Stack ===== 

            3 scf_env_do_scf
            2 qs_energies
            1 CP2K

 *******************************************************************************
 *   ___                                                                       *
 *  /   \                                                                      *
 * [ABORT]                                                                     *
 *  \___/     SCF run NOT converged. To continue the calculation regardless,   *
 *    |             please set the keyword IGNORE_CONVERGENCE_FAILURE.         *
 *  O/|                                                                        *
 * /| |                                                                        *
 * / \                                                            qs_scf.F:611 *
 *******************************************************************************


 ===== Routine Calling Stack ===== 

            3 scf_env_do_scf
            2 qs_energies
            1 CP2K

 *******************************************************************************
 *   ___                                                                       *
 *  /   \                                                                      *
 * [ABORT]                                                                     *
 *  \___/     SCF run NOT converged. To continue the calculation regardless,   *
 *    |             please set the keyword IGNORE_CONVERGENCE_FAILURE.         *
 *  O/|                                                                        *
 * /| |                                                                        *
 * / \                                                            qs_scf.F:611 *
 *******************************************************************************


 ===== Routine Calling Stack ===== 

            3 scf_env_do_scf
            2 qs_energies
            1 CP2K

 *******************************************************************************
 *   ___                                                                       *
 *  /   \                                                                      *
 * [ABORT]                                                                     *
 *  \___/     SCF run NOT converged. To continue the calculation regardless,   *
 *    |             please set the keyword IGNORE_CONVERGENCE_FAILURE.         *
 *  O/|                                                                        *
 * /| |                                                                        *
 * / \                                                            qs_scf.F:611 *
 *******************************************************************************


 ===== Routine Calling Stack ===== 

            3 scf_env_do_scf
            2 qs_energies
            1 CP2K

 *******************************************************************************
 *   ___                                                                       *
 *  /   \                                                                      *
 * [ABORT]                                                                     *
 *  \___/     SCF run NOT converged. To continue the calculation regardless,   *
 *    |             please set the keyword IGNORE_CONVERGENCE_FAILURE.         *
 *  O/|                                                                        *
 * /| |                                                                        *
 * / \                                                            qs_scf.F:611 *
 *******************************************************************************


 ===== Routine Calling Stack ===== 

            3 scf_env_do_scf
            2 qs_energies
            1 CP2K

 *******************************************************************************
 *   ___                                                                       *
 *  /   \                                                                      *
 * [ABORT]                                                                     *
 *  \___/     SCF run NOT converged. To continue the calculation regardless,   *
 *    |             please set the keyword IGNORE_CONVERGENCE_FAILURE.         *
 *  O/|                                                                        *
 * /| |                                                                        *
 * / \                                                            qs_scf.F:611 *
 *******************************************************************************


 ===== Routine Calling Stack ===== 

            3 scf_env_do_scf
            2 qs_energies
            1 CP2K

 *******************************************************************************
 *   ___                                                                       *
 *  /   \                                                                      *
 * [ABORT]                                                                     *
 *  \___/     SCF run NOT converged. To continue the calculation regardless,   *
 *    |             please set the keyword IGNORE_CONVERGENCE_FAILURE.         *
 *  O/|                                                                        *
 * /| |                                                                        *
 * / \                                                            qs_scf.F:611 *
 *******************************************************************************


 ===== Routine Calling Stack ===== 

            3 scf_env_do_scf
            2 qs_energies
            1 CP2K

 *******************************************************************************
 *   ___                                                                       *
 *  /   \                                                                      *
 * [ABORT]                                                                     *
 *  \___/     SCF run NOT converged. To continue the calculation regardless,   *
 *    |             please set the keyword IGNORE_CONVERGENCE_FAILURE.         *
 *  O/|                                                                        *
 * /| |                                                                        *
 * / \                                                            qs_scf.F:611 *
 *******************************************************************************


 ===== Routine Calling Stack ===== 

            3 scf_env_do_scf
            2 qs_energies
            1 CP2K
