 DBCSR| CPU Multiplication driver                                           BLAS (U)
 DBCSR| Multrec recursion limit                                              512 (U)
 DBCSR| Multiplication stack size                                           1000 (D)
 DBCSR| Maximum elements for images                                    UNLIMITED (U)
 DBCSR| Multiplicative factor virtual images                                   1 (U)
 DBCSR| Use multiplication densification                                       T (D)
 DBCSR| Multiplication size stacks                                             3 (U)
 DBCSR| Use memory pool for CPU allocation                                     F (U)
 DBCSR| Number of 3D layers                                               SINGLE (U)
 DBCSR| Use MPI memory allocation                                              F (U)
 DBCSR| Use RMA algorithm                                                      F (U)
 DBCSR| Use Communication thread                                               T (U)
 DBCSR| Communication thread load                                             75 (D)
 DBCSR| MPI: My process id                                                     0
 DBCSR| MPI: Number of processes                                              24
 DBCSR| OMP: Current number of threads                                         4
 DBCSR| OMP: Max number of threads                                             4
 DBCSR| Split modifier for TAS multiplication algorithm                  1.0E+00 (U)


  **** **** ******  **  PROGRAM STARTED AT               2025-03-08 01:30:48.097
 ***** ** ***  *** **   PROGRAM STARTED ON                          i02r03c03s12
 **    ****   ******    PROGRAM STARTED BY                               di38fab
 ***** **    ** ** **   PROGRAM PROCESS ID                               2861555
  **** **  *******  **  PROGRAM STARTED IN /hppfs/scratch/04/di38fab/05_MOL/W4-1
                                           1+ALK/h2/SZVSR

 CP2K| version string:                 CP2K version 2025.1 (Development Version)
 CP2K| source code revision number:                                  git:47877ba
 CP2K| cp2kflags: omp libint fftw3 libxc parallel scalapack max_contr=4         
 CP2K| is freely available from                            https://www.cp2k.org/
 CP2K| Program compiled at                          Thu Feb 20 16:00:34 CET 2025
 CP2K| Program compiled on                                               login04
 CP2K| Program compiled for                                        Supermuc-foss
 CP2K| Data directory path          /hppfs/work/pn36zo/di38fab/newcp2k/cp2k/data
 CP2K| Input file name                                                    GW.inp

 GLOBAL| Force Environment number                                              1
 GLOBAL| Basis set file name            /hppfs/scratch/04/di38fab/04_TMD/BASIS_A
 GLOBAL| Potential file name            /hppfs/work/pn36zo/di38fab/cp2k/data/ALL
 GLOBAL| MM Potential file name                                     MM_POTENTIAL
 GLOBAL| Coordinate file name                                      __STD_INPUT__
 GLOBAL| Method name                                                        CP2K
 GLOBAL| Project name                                                       MoS2
 GLOBAL| Run type                                                         ENERGY
 GLOBAL| FFT library                                                       FFTW3
 GLOBAL| Diagonalization library                                       ScaLAPACK
 GLOBAL| DGEMM library                                                      BLAS
 GLOBAL| Orthonormality check for eigenvectors                          DISABLED
 GLOBAL| Matrix multiplication library                                 ScaLAPACK
 GLOBAL| All-to-all communication in single precision                          F
 GLOBAL| FFTs using library dependent lengths                                  F
 GLOBAL| Grid backend                                                       AUTO
 GLOBAL| Global print level                                               MEDIUM
 GLOBAL| MPI I/O enabled                                                       T
 GLOBAL| Total number of message passing processes                            24
 GLOBAL| Number of threads for this process                                    4
 GLOBAL| This output is from process                                           0
 GLOBAL| OpenMP stack size per thread (OMP_STACKSIZE)                    default
 GLOBAL| CPU model name             Intel(R) Xeon(R) Platinum 8174 CPU @ 3.10GHz

 MEMORY| system memory details [Kb]
 MEMORY|                        rank 0           min           max       average
 MEMORY| MemTotal             98436664      98436664      98436664      98436664
 MEMORY| MemFree              83537528      83537528      84035688      83786608
 MEMORY| Buffers                     0             0             0             0
 MEMORY| Cached                2423424       2423424       2434688       2429056
 MEMORY| Slab                  1237744       1220724       1237744       1229234
 MEMORY| SReclaimable           270408        267664        270408        269036
 MEMORY| MemLikelyFree        86231360      86231360      86738040      86484700


 *** Fundamental physical constants (SI units) ***

 *** Literature: B. J. Mohr and B. N. Taylor,
 ***             CODATA recommended values of the fundamental physical
 ***             constants: 2006, Web Version 5.1
 ***             http://physics.nist.gov/constants

 Speed of light in vacuum [m/s]                             2.99792458000000E+08
 Magnetic constant or permeability of vacuum [N/A**2]       1.25663706143592E-06
 Electric constant or permittivity of vacuum [F/m]          8.85418781762039E-12
 Planck constant (h) [J*s]                                  6.62606896000000E-34
 Planck constant (h-bar) [J*s]                              1.05457162825177E-34
 Elementary charge [C]                                      1.60217648700000E-19
 Electron mass [kg]                                         9.10938215000000E-31
 Electron g factor [ ]                                     -2.00231930436220E+00
 Proton mass [kg]                                           1.67262163700000E-27
 Fine-structure constant                                    7.29735253760000E-03
 Rydberg constant [1/m]                                     1.09737315685270E+07
 Avogadro constant [1/mol]                                  6.02214179000000E+23
 Boltzmann constant [J/K]                                   1.38065040000000E-23
 Atomic mass unit [kg]                                      1.66053878200000E-27
 Bohr radius [m]                                            5.29177208590000E-11

 *** Conversion factors ***

 [u] -> [a.u.]                                              1.82288848426455E+03
 [Angstrom] -> [Bohr] = [a.u.]                              1.88972613288564E+00
 [a.u.] = [Bohr] -> [Angstrom]                              5.29177208590000E-01
 [a.u.] -> [s]                                              2.41888432650478E-17
 [a.u.] -> [fs]                                             2.41888432650478E-02
 [a.u.] -> [J]                                              4.35974393937059E-18
 [a.u.] -> [N]                                              8.23872205491840E-08
 [a.u.] -> [K]                                              3.15774647902944E+05
 [a.u.] -> [kJ/mol]                                         2.62549961709828E+03
 [a.u.] -> [kcal/mol]                                       6.27509468713739E+02
 [a.u.] -> [Pa]                                             2.94210107994716E+13
 [a.u.] -> [bar]                                            2.94210107994716E+08
 [a.u.] -> [atm]                                            2.90362800883016E+08
 [a.u.] -> [eV]                                             2.72113838565563E+01
 [a.u.] -> [Hz]                                             6.57968392072181E+15
 [a.u.] -> [1/cm] (wave numbers)                            2.19474631370540E+05
 [a.u./Bohr**2] -> [1/cm]                                   5.14048714338585E+03
 

 CELL_TOP| Volume [angstrom^3]:                                     27000.000000
 CELL_TOP| Vector a [angstrom    30.000     0.000     0.000   |a| =    30.000000
 CELL_TOP| Vector b [angstrom     0.000    30.000     0.000   |b| =    30.000000
 CELL_TOP| Vector c [angstrom     0.000     0.000    30.000   |c| =    30.000000
 CELL_TOP| Angle (b,c), alpha [degree]:                                90.000000
 CELL_TOP| Angle (a,c), beta  [degree]:                                90.000000
 CELL_TOP| Angle (a,b), gamma [degree]:                                90.000000
 CELL_TOP| Numerically orthorhombic:                                         YES
 CELL_TOP| Periodicity                                                      NONE

 GENERATE|  Preliminary Number of Bonds generated:                             0
 GENERATE|  Achieved consistency in connectivity generation.

 CELL| Volume [angstrom^3]:                                         27000.000000
 CELL| Vector a [angstrom]:      30.000     0.000     0.000   |a| =    30.000000
 CELL| Vector b [angstrom]:       0.000    30.000     0.000   |b| =    30.000000
 CELL| Vector c [angstrom]:       0.000     0.000    30.000   |c| =    30.000000
 CELL| Angle (b,c), alpha [degree]:                                    90.000000
 CELL| Angle (a,c), beta  [degree]:                                    90.000000
 CELL| Angle (a,b), gamma [degree]:                                    90.000000
 CELL| Numerically orthorhombic:                                             YES
 CELL| Periodicity                                                          NONE

 CELL_REF| Volume [angstrom^3]:                                     27000.000000
 CELL_REF| Vector a [angstrom    30.000     0.000     0.000   |a| =    30.000000
 CELL_REF| Vector b [angstrom     0.000    30.000     0.000   |b| =    30.000000
 CELL_REF| Vector c [angstrom     0.000     0.000    30.000   |c| =    30.000000
 CELL_REF| Angle (b,c), alpha [degree]:                                90.000000
 CELL_REF| Angle (a,c), beta  [degree]:                                90.000000
 CELL_REF| Angle (a,b), gamma [degree]:                                90.000000
 CELL_REF| Numerically orthorhombic:                                         YES
 CELL_REF| Periodicity                                                      NONE

 *******************************************************************************
 *******************************************************************************
 **                                                                           **
 **     #####                         ##              ##                      **
 **    ##   ##            ##          ##              ##                      **
 **   ##     ##                       ##            ######                    **
 **   ##     ##  ##   ##  ##   #####  ##  ##   ####   ##    #####    #####    **
 **   ##     ##  ##   ##  ##  ##      ## ##   ##      ##   ##   ##  ##   ##   **
 **   ##  ## ##  ##   ##  ##  ##      ####     ###    ##   ######   ######    **
 **    ##  ###   ##   ##  ##  ##      ## ##      ##   ##   ##       ##        **
 **     #######   #####   ##   #####  ##  ##  ####    ##    #####   ##        **
 **           ##                                                    ##        **
 **                                                                           **
 **                                                ... make the atoms dance   **
 **                                                                           **
 **            Copyright (C) by CP2K developers group (2000-2025)             **
 **                      J. Chem. Phys. 152, 194103 (2020)                    **
 **                                                                           **
 *******************************************************************************

 DFT| Spin restricted Kohn-Sham (RKS) calculation                            RKS
 DFT| Multiplicity                                                             1
 DFT| Number of spin states                                                    1
 DFT| Charge                                                                   0
 DFT| Self-interaction correction (SIC)                                       NO
 DFT| Cutoffs: density                                              1.000000E-10
 DFT|          gradient                                             1.000000E-10
 DFT|          tau                                                  1.000000E-10
 DFT|          cutoff_smoothing_range                               0.000000E+00
 DFT| XC density smoothing                                                  NONE
 DFT| XC derivatives                                                          PW

 FUNCTIONAL| PBE:
 FUNCTIONAL| J.P.Perdew, K.Burke, M.Ernzerhof, Phys. Rev. Letter, vol. 77, n 18,
 FUNCTIONAL|  pp. 3865-3868, (1996)sx=0.750sc=1.000{spin unpolarized}           


 QS| Method:                                                                GAPW
 QS| Density plane wave grid type                        NON-SPHERICAL FULLSPACE
 QS| Number of grid levels:                                                    4
 QS| Density cutoff [a.u.]:                                                250.0
 QS| Multi grid cutoff [a.u.]: 1) grid level                               250.0
 QS|                           2) grid level                                83.3
 QS|                           3) grid level                                27.8
 QS|                           4) grid level                                 9.3
 QS| Grid level progression factor:                                          3.0
 QS| Relative density cutoff [a.u.]:                                        50.0
 QS| Interaction thresholds: eps_pgf_orb:                                1.0E-12
 QS|                         eps_filter_matrix:                          0.0E+00
 QS|                         eps_core_charge:                            1.0E-14
 QS|                         eps_rho_gspace:                             1.0E-12
 QS|                         eps_rho_rspace:                             1.0E-12
 QS|                         eps_gvg_rspace:                             1.0E-06
 QS|                         eps_ppl:                                    1.0E-02
 QS|                         eps_ppnl:                                   1.0E-08
 QS| GAPW|      One center basis from orbital basis primitives
 QS| GAPW|                   eps_fit:                                    1.0E-04
 QS| GAPW|                   eps_iso:                                    1.0E-12
 QS| GAPW|                   eps_svd:                                    1.0E-08
 QS| GAPW|                   eps_cpc:                                    1.0E-12
 QS| GAPW|   atom-r-grid: quadrature:                                     GC_LOG
 QS| GAPW|      atom-s-grid:  max l :                                          2
 QS| GAPW|      max_l_rho0 :                                                   2
 QS| GAPW|      At least one kind is NOT PAW, i.e. it has only soft AO 
 QS| GAPW|      The NOT PAW atoms are treated fully GPW


 ATOMIC KIND INFORMATION

  1. Atomic kind: H                                     Number of atoms:       2

     Orbital Basis Set                                      aug-SZV-MOLOPT-ae-SR

       Number of orbital shell sets:                                           1
       Number of orbital shells:                                               4
       Number of primitive Cartesian functions:                                4
       Number of Cartesian basis functions:                                    6
       Number of spherical basis functions:                                    6
       Norm type:                                                              2

       Normalised Cartesian orbitals:

                        Set   Shell   Orbital            Exponent    Coefficient

                          1       1    2s                0.065428       0.000000
                                                         0.168855       0.083474
                                                         0.623914       0.267839
                                                         3.425251       0.276934

                          1       2    3s                0.065428      -0.066952
                                                         0.168855       0.261968
                                                         0.623914       0.081548
                                                         3.425251      -0.022414

                          1       3    4s                0.065428       0.165615
                                                         0.168855      -0.226449
                                                         0.623914      -0.005802
                                                         3.425251       0.005451

                          1       4    3px               0.065428       0.053063
                                                         0.168855      -0.030502
                                                         0.623914       0.062721
                                                         3.425251       0.019012
                          1       4    3py               0.065428       0.053063
                                                         0.168855      -0.030502
                                                         0.623914       0.062721
                                                         3.425251       0.019012
                          1       4    3pz               0.065428       0.053063
                                                         0.168855      -0.030502
                                                         0.623914       0.062721
                                                         3.425251       0.019012

     RI Auxiliary Basis Set             RI_aug-SZV-MOLOPT-ae-SR_N_RI_035_s_p_d_f

       Number of orbital shell sets:                                          15
       Number of orbital shells:                                              15
       Number of primitive Cartesian functions:                               15
       Number of Cartesian basis functions:                                   37
       Number of spherical basis functions:                                   35
       Norm type:                                                              2

       Normalised Cartesian orbitals:

                        Set   Shell   Orbital            Exponent    Coefficient

                          1       1    1s                0.236911       0.242019

                          2       1    8px               0.347892       0.380843
                          2       1    8py               0.347892       0.380843
                          2       1    8pz               0.347892       0.380843

                          3       1    2s                0.423897       0.374417

                          4       1    9px               0.493166       0.589089
                          4       1    9py               0.493166       0.589089
                          4       1    9pz               0.493166       0.589089

                          5       1   14dx2              0.625366       0.723843
                          5       1   14dxy              0.625366       1.253733
                          5       1   14dxz              0.625366       1.253733
                          5       1   14dy2              0.625366       0.723843
                          5       1   14dyz              0.625366       1.253733
                          5       1   14dz2              0.625366       0.723843

                          6       1   10px               0.699103       0.911206
                          6       1   10py               0.699103       0.911206
                          6       1   10pz               0.699103       0.911206

                          7       1    3s                0.758464       0.579244

                          8       1   11px               0.991036       1.409457
                          8       1   11py               0.991036       1.409457
                          8       1   11pz               0.991036       1.409457

                          9       1   15dx2              1.286053       2.556305
                          9       1   15dxy              1.286053       4.427650
                          9       1   15dxz              1.286053       4.427650
                          9       1   15dy2              1.286053       2.556305
                          9       1   15dyz              1.286053       4.427650
                          9       1   15dz2              1.286053       2.556305

                         10       1    4s                1.357095       0.896123

                         11       1   12px               1.404875       2.180155
                         11       1   12py               1.404875       2.180155
                         11       1   12pz               1.404875       2.180155

                         12       1   13px               1.991527       3.372273
                         12       1   13py               1.991527       3.372273
                         12       1   13pz               1.991527       3.372273

                         13       1    5s                2.428204       1.386354

                         14       1    6s                4.344704       2.144768

                         15       1    7s                7.773833       3.318077

       Atomic covalent radius [Angstrom]:                                  0.320

       Atomic van der Waals radius [Angstrom]:                             1.090

     AE Potential information for                                            ALL

       Description:                                       All-electron potential
                                          Krack, Parrinello, PCCP 2, 2105 (2000)

       Gaussian exponent of the core charge distribution:              12.500000
       Electronic configuration (s p d ...):                           1   0   0


 MOLECULE KIND INFORMATION


 All atoms are their own molecule, skipping detailed information


 TOTAL NUMBERS AND MAXIMUM NUMBERS

  Total number of            - Atomic kinds:                                   1
                             - Atoms:                                          2
                             - Shell sets:                                     2
                             - Shells:                                         8
                             - Primitive Cartesian functions:                  8
                             - Cartesian basis functions:                     12
                             - Spherical basis functions:                     12

  Maximum angular momentum of the orbital basis functions:                     1


 MODULE QUICKSTEP: ATOMIC COORDINATES IN ANGSTROM

   Atom Kind Element         X             Y             Z       Z(eff)     Mass
      1    1 H     1     15.370946     15.000000     15.000000   1.0000   1.0079
      2    1 H     1     14.629054     15.000000     15.000000   1.0000   1.0079



 SCF PARAMETERS         Density guess:                                    ATOMIC
                        --------------------------------------------------------
                        max_scf:                                             500
                        max_scf_history:                                       0
                        max_diis:                                              4
                        --------------------------------------------------------
                        eps_scf:                                        1.00E-06
                        eps_scf_history:                                0.00E+00
                        eps_diis:                                       1.00E-01
                        eps_eigval:                                     1.00E-05
                        --------------------------------------------------------
                        level_shift [a.u.]:                             0.000000
                        added MOs                                        11    0
                        --------------------------------------------------------
                        Mixing method:                            BROYDEN_MIXING
                                                charge density mixing in g-space
                        --------------------------------------------------------
                        No outer SCF

 PW_GRID| Information for grid number                                          1
 PW_GRID| Grid distributed over                                    24 processors
 PW_GRID| Real space group dimensions                                    24    1
 PW_GRID| the grid is blocked:                                                NO
 PW_GRID| Cutoff [a.u.]                                                    250.0
 PW_GRID| spherical cutoff:                                                   NO
 PW_GRID|   Bounds   1           -202     202                Points:         405
 PW_GRID|   Bounds   2           -202     202                Points:         405
 PW_GRID|   Bounds   3           -202     202                Points:         405
 PW_GRID| Volume element (a.u.^3)  0.2743E-02     Volume (a.u.^3)    182205.0337
 PW_GRID| Grid span                                                    FULLSPACE
 PW_GRID|   Distribution                         Average         Max         Min
 PW_GRID|   G-Vectors                          2767921.9     2768175     2767770
 PW_GRID|   G-Rays                                6834.4        6835        6834
 PW_GRID|   Real Space Points                  2767921.9     2788425     2624400

 PW_GRID| Information for grid number                                          2
 PW_GRID| Number of the reference grid                                         1
 PW_GRID| Grid distributed over                                    24 processors
 PW_GRID| Real space group dimensions                                    24    1
 PW_GRID| the grid is blocked:                                                NO
 PW_GRID| Cutoff [a.u.]                                                     83.3
 PW_GRID| spherical cutoff:                                                   NO
 PW_GRID|   Bounds   1           -120     119                Points:         240
 PW_GRID|   Bounds   2           -120     119                Points:         240
 PW_GRID|   Bounds   3           -120     119                Points:         240
 PW_GRID| Volume element (a.u.^3)  0.1318E-01     Volume (a.u.^3)    182205.0337
 PW_GRID| Grid span                                                    FULLSPACE
 PW_GRID|   Distribution                         Average         Max         Min
 PW_GRID|   G-Vectors                           576000.0      576240      575760
 PW_GRID|   G-Rays                                2400.0        2401        2399
 PW_GRID|   Real Space Points                   576000.0      576000      576000

 PW_GRID| Information for grid number                                          3
 PW_GRID| Number of the reference grid                                         1
 PW_GRID| Grid distributed over                                    24 processors
 PW_GRID| Real space group dimensions                                    24    1
 PW_GRID| the grid is blocked:                                                NO
 PW_GRID| Cutoff [a.u.]                                                     27.8
 PW_GRID| spherical cutoff:                                                   NO
 PW_GRID|   Bounds   1            -67      67                Points:         135
 PW_GRID|   Bounds   2            -67      67                Points:         135
 PW_GRID|   Bounds   3            -67      67                Points:         135
 PW_GRID| Volume element (a.u.^3)  0.7406E-01     Volume (a.u.^3)    182205.0337
 PW_GRID| Grid span                                                    FULLSPACE
 PW_GRID|   Distribution                         Average         Max         Min
 PW_GRID|   G-Vectors                           102515.6      102735      102330
 PW_GRID|   G-Rays                                 759.4         761         758
 PW_GRID|   Real Space Points                   102515.6      109350       91125

 PW_GRID| Information for grid number                                          4
 PW_GRID| Number of the reference grid                                         1
 PW_GRID| Grid distributed over                                    24 processors
 PW_GRID| Real space group dimensions                                    24    1
 PW_GRID| the grid is blocked:                                                NO
 PW_GRID| Cutoff [a.u.]                                                      9.3
 PW_GRID| spherical cutoff:                                                   NO
 PW_GRID|   Bounds   1            -40      39                Points:          80
 PW_GRID|   Bounds   2            -40      39                Points:          80
 PW_GRID|   Bounds   3            -40      39                Points:          80
 PW_GRID| Volume element (a.u.^3)  0.3559         Volume (a.u.^3)    182205.0337
 PW_GRID| Grid span                                                    FULLSPACE
 PW_GRID|   Distribution                         Average         Max         Min
 PW_GRID|   G-Vectors                            21333.3       21360       21280
 PW_GRID|   G-Rays                                 266.7         267         266
 PW_GRID|   Real Space Points                    21333.3       25600       19200

 POISSON| Solver                                                         WAVELET
 POISSON| Wavelet| Scaling function                                           40
 POISSON| Periodicity                                                       NONE

 RS_GRID| Information for grid number                                          1
 RS_GRID|   Bounds   1           -202     202                Points:         405
 RS_GRID|   Bounds   2           -202     202                Points:         405
 RS_GRID|   Bounds   3           -202     202                Points:         405
 RS_GRID| Real space distribution over                                  2 groups
 RS_GRID| Real space distribution along direction                              1
 RS_GRID| Border size                                                         29
 RS_GRID| Real space distribution over                                  3 groups
 RS_GRID| Real space distribution along direction                              2
 RS_GRID| Border size                                                         29
 RS_GRID| Real space distribution over                                  4 groups
 RS_GRID| Real space distribution along direction                              3
 RS_GRID| Border size                                                         29
 RS_GRID|   Distribution                         Average         Max         Min
 RS_GRID|   Planes                                 260.5         261         260
 RS_GRID|   Distribution                         Average         Max         Min
 RS_GRID|   Planes                                 193.0         193         193
 RS_GRID|   Distribution                         Average         Max         Min
 RS_GRID|   Planes                                 159.2         160         159

 RS_GRID| Information for grid number                                          2
 RS_GRID|   Bounds   1           -120     119                Points:         240
 RS_GRID|   Bounds   2           -120     119                Points:         240
 RS_GRID|   Bounds   3           -120     119                Points:         240
 RS_GRID| Real space distribution over                                  2 groups
 RS_GRID| Real space distribution along direction                              1
 RS_GRID| Border size                                                         32
 RS_GRID| Real space distribution over                                  3 groups
 RS_GRID| Real space distribution along direction                              2
 RS_GRID| Border size                                                         32
 RS_GRID| Real space distribution over                                  4 groups
 RS_GRID| Real space distribution along direction                              3
 RS_GRID| Border size                                                         32
 RS_GRID|   Distribution                         Average         Max         Min
 RS_GRID|   Planes                                 184.0         184         184
 RS_GRID|   Distribution                         Average         Max         Min
 RS_GRID|   Planes                                 144.0         144         144
 RS_GRID|   Distribution                         Average         Max         Min
 RS_GRID|   Planes                                 124.0         124         124

 RS_GRID| Information for grid number                                          3
 RS_GRID|   Bounds   1            -67      67                Points:         135
 RS_GRID|   Bounds   2            -67      67                Points:         135
 RS_GRID|   Bounds   3            -67      67                Points:         135
 RS_GRID| Real space fully replicated
 RS_GRID| Group size                                                           1

 RS_GRID| Information for grid number                                          4
 RS_GRID|   Bounds   1            -40      39                Points:          80
 RS_GRID|   Bounds   2            -40      39                Points:          80
 RS_GRID|   Bounds   3            -40      39                Points:          80
 RS_GRID| Real space fully replicated
 RS_GRID| Group size                                                           1

  HFX_INFO| Replica ID:                                                        1
  HFX_INFO| FRACTION:                                               0.2500000000
  HFX_INFO| Interaction Potential:                                       COULOMB
  HFX_INFO| EPS_SCHWARZ:                                                 1.0E-10
  HFX_INFO| EPS_SCHWARZ_FORCES                                           1.0E-08
  HFX_INFO| EPS_STORAGE_SCALING:                                         1.0E+00
  HFX_INFO| NBINS:                                                            64
  HFX_INFO| BLOCK_SIZE:                                                        1
  HFX_INFO| Number of periodic shells considered:                           NONE
  HFX_INFO| Number of periodic cells considered:                            NONE

 
 RI-RPA| using GPW style
 

 OVERLAP MATRIX CONDITION NUMBER
 1-Norm Condition Number (Estimate)
   CN : |A|*|A^-1|:  3.815E+000 *  8.079E+003   = 3.082E+004  Log(1-CN):  4.4888
 1-Norm and 2-Norm Condition Numbers using Diagonalization
   CN : |A|*|A^-1|:  3.815E+000 *  8.079E+003   = 3.082E+004  Log(1-CN):  4.4888
   CN : max/min ev:  3.354E+000 /  1.562E-004   = 2.147E+004  Log(2-CN):  4.3318

 Number of electrons:                                                          2
 Number of occupied orbitals:                                                  1
 Number of molecular orbitals:                                                12

 Number of orbital functions:                                                 12
 Number of independent orbital functions:                                     12

 Extrapolation method: initial_guess

 Atomic guess: The first density matrix is obtained in terms of atomic orbitals
               and electronic configurations assigned to each atomic kind

 Guess for atomic kind: H

 Electronic structure
    Total number of core electrons                                          0.00
    Total number of valence electrons                                       1.00
    Total number of electrons                                               1.00
    Multiplicity                                                   not specified
    S      1.00


 *******************************************************************************
                  Iteration          Convergence                     Energy [au]
 *******************************************************************************
                          1        0.105001E-01                  -0.442912571909
                          2        0.809393E-03                  -0.443000038014
                          3        0.126045E-03                  -0.443002205783
                          4        0.926691E-07                  -0.443002227638

 Energy components [Hartree]           Total Energy ::           -0.443002227638
                                        Band Energy ::           -0.231242105371
                                     Kinetic Energy ::            0.416655567325
                                   Potential Energy ::           -0.859657794963
                                      Virial (-V/T) ::            2.063233669195
                                        Core Energy ::           -0.493343888102
                                          XC Energy ::           -0.231659799565
                                     Coulomb Energy ::            0.282001460029

 Orbital energies  State     L     Occupation   Energy[a.u.]          Energy[eV]

                       1     0          1.000      -0.231242           -6.292418


 Total Electron Density at R=0:                                         0.184980
 Re-scaling the density matrix to get the right number of electrons
                  # Electrons              Trace(P)               Scaling factor
                            2                 2.000                        1.000


 SCF WAVEFUNCTION OPTIMIZATION

  Step     Update method      Time    Convergence         Total energy    Change
  ------------------------------------------------------------------------------

  HFX_MEM_INFO| Est. max. program size before HFX [MiB]:                    2133
  HFX_MEM_INFO| Number of cart. primitive ERI's calculated:               393216
  HFX_MEM_INFO| Number of sph. ERI's calculated:                            7776
  HFX_MEM_INFO| Number of sph. ERI's stored in-core:                        7776
  HFX_MEM_INFO| Number of sph. ERI's stored on disk:                           0
  HFX_MEM_INFO| Number of sph. ERI's calculated on the fly:                    0
  HFX_MEM_INFO| Total memory consumption ERI's RAM [MiB]:                      1
  HFX_MEM_INFO| Whereof max-vals [MiB]:                                        1
  HFX_MEM_INFO| Total compression factor ERI's RAM:                         0.08
  HFX_MEM_INFO| Total memory consumption ERI's disk [MiB]:                     0
  HFX_MEM_INFO| Total compression factor ERI's disk:                        0.00
  HFX_MEM_INFO| Size of density/Fock matrix [MiB]:                             0
  HFX_MEM_INFO| Size of buffers [MiB]:                                         0
  HFX_MEM_INFO| Est. max. program size after HFX  [MiB]:                    2604

     1 NoMix/Diag. 0.10E+00    5.9     0.59724083        -0.9403973612 -9.40E-01
     2 Broy./Diag. 0.10E+00    5.0     0.07596857        -0.7410509072  1.99E-01
     3 Broy./Diag. 0.10E+00    5.0     0.07198159        -0.3317784504  4.09E-01
     4 Broy./Diag. 0.10E+00    5.1     0.05393666        -0.6379871875 -3.06E-01
     5 Broy./Diag. 0.10E+00    5.0     0.02448390        -0.7444598975 -1.06E-01
     6 Broy./Diag. 0.10E+00    5.1     0.02160710        -0.8158933853 -7.14E-02
     7 Broy./Diag. 0.10E+00    5.2     0.05776399        -0.9730988159 -1.57E-01
     8 Broy./Diag. 0.10E+00    5.2     0.01802606        -1.0416004455 -6.85E-02
     9 Broy./Diag. 0.10E+00    5.3     0.00723837        -1.0674564324 -2.59E-02
    10 Broy./Diag. 0.10E+00    5.3     0.01753071        -1.1130468173 -4.56E-02
    11 Broy./Diag. 0.10E+00    5.3     0.00928069        -1.1442697390 -3.12E-02
    12 Broy./Diag. 0.10E+00    5.3     0.00143880        -1.1498530858 -5.58E-03
    13 Broy./Diag. 0.10E+00    5.3     0.00268086        -1.1484763139  1.38E-03
    14 Broy./Diag. 0.10E+00    5.3     0.00276873        -1.1576282275 -9.15E-03
    15 Broy./Diag. 0.10E+00    5.7     0.00099160        -1.1561849504  1.44E-03
    16 Broy./Diag. 0.10E+00    5.5     0.00226218        -1.1487939295  7.39E-03
    17 Broy./Diag. 0.10E+00    5.5     0.00189440        -1.1531237463 -4.33E-03
    18 Broy./Diag. 0.10E+00    5.5     0.00100102        -1.1571748380 -4.05E-03
    19 Broy./Diag. 0.10E+00    5.4     0.00035820        -1.1568912475  2.84E-04
    20 Broy./Diag. 0.10E+00    5.4     0.00041307        -1.1575997914 -7.09E-04
    21 Broy./Diag. 0.10E+00    5.4     0.00034081        -1.1583463450 -7.47E-04
    22 Broy./Diag. 0.10E+00    5.3     0.00032758        -1.1578300405  5.16E-04
    23 Broy./Diag. 0.10E+00    5.3     0.00003711        -1.1577884739  4.16E-05
    24 Broy./Diag. 0.10E+00    5.3     0.00016390        -1.1579596865 -1.71E-04
    25 Broy./Diag. 0.10E+00    5.2     0.00006149        -1.1577393586  2.20E-04
    26 Broy./Diag. 0.10E+00    5.3     0.00005589        -1.1577117216  2.76E-05
    27 Broy./Diag. 0.10E+00    5.2     0.00012597        -1.1579054853 -1.94E-04
    28 Broy./Diag. 0.10E+00    5.3     0.00004106        -1.1579064476 -9.62E-07
    29 Broy./Diag. 0.10E+00    5.2     0.00001240        -1.1578894625  1.70E-05
    30 Broy./Diag. 0.10E+00    5.2     0.00002348        -1.1578680835  2.14E-05
    31 Broy./Diag. 0.10E+00    5.3     0.00002390        -1.1578057855  6.23E-05
    32 Broy./Diag. 0.10E+00    5.3     0.00002486        -1.1578388835 -3.31E-05
    33 Broy./Diag. 0.10E+00    5.6     0.00004231        -1.1577773615  6.15E-05
    34 Broy./Diag. 0.10E+00    5.6     0.00001095        -1.1577294267  4.79E-05
    35 Broy./Diag. 0.10E+00    5.5     0.00002698        -1.1577634825 -3.41E-05
    36 Broy./Diag. 0.10E+00    5.5     0.00003171        -1.1576883851  7.51E-05
    37 Broy./Diag. 0.10E+00    5.6     0.00000365        -1.1576826244  5.76E-06
    38 Broy./Diag. 0.10E+00    5.4     0.00001769        -1.1577322546 -4.96E-05
    39 Broy./Diag. 0.10E+00    5.3     0.00002430        -1.1576872115  4.50E-05
    40 Broy./Diag. 0.10E+00    5.3     0.00000789        -1.1576732226  1.40E-05
    41 Broy./Diag. 0.10E+00    5.3     0.00001885        -1.1577183769 -4.52E-05
    42 Broy./Diag. 0.10E+00    5.3     0.00000698        -1.1577105306  7.85E-06
    43 Broy./Diag. 0.10E+00    5.3     0.00000643        -1.1577007404  9.79E-06
    44 Broy./Diag. 0.10E+00    5.3     0.00000310        -1.1577119736 -1.12E-05
    45 Broy./Diag. 0.10E+00    5.2     0.00000445        -1.1577058587  6.11E-06
    46 Broy./Diag. 0.10E+00    5.3     0.00000099        -1.1577031335  2.73E-06

  *** SCF run converged in    46 steps ***


  Electronic density on regular grids:         -2.0000000000        0.0000000000
  Core density on regular grids:                2.0000000000       -0.0000000000
  Hard and soft densities (Lebedev):           -0.0000000000       -0.0000000000
  Total Rho_soft + Rho1_hard - Rho1_soft       -2.0000000000
  Total charge density (r-space):              -0.0000000000
  Total Rho_soft + Rho0_soft (g-space):        -0.0000000000

  Overlap energy of the core charge distribution:               0.00000051136925
  Self energy of the core charge distribution:                 -2.82094791773878
  Core Hamiltonian energy:                                      0.97024898025368
  Hartree energy:                                               1.37873467473185
  Exchange-correlation energy:                                 -0.52355432240693
  Hartree-Fock Exchange energy:                                -0.16218505974911

  GAPW| Exc from hard and soft atomic rho1:                     0.00000000000000
  GAPW| local Eh = 1 center integrals:                          0.00000000000000

  Total energy:                                                -1.15770313354004

 !-----------------------------------------------------------------------------!
                     Mulliken Population Analysis

 #  Atom  Element  Kind  Atomic population                           Net charge
       1     H        1          1.000000                             -0.000000
       2     H        1          1.000000                              0.000000
 # Total charge                              2.000000                 -0.000000

 !-----------------------------------------------------------------------------!

 !-----------------------------------------------------------------------------!
                           Hirshfeld Charges

  #Atom  Element  Kind  Ref Charge     Population                    Net charge
      1       H      1       1.000          0.931                         0.069
      2       H      1       1.000          0.931                         0.069

  Total Charge                                                            0.137
 !-----------------------------------------------------------------------------!


 RI-RPA section
 --------------

  Used number of processes per group:                                          1
  Maximum allowed memory usage per MPI process:                      1024.00 MiB
  RI_INFO| Cholesky decomposition group size:                                  2
  RI_INFO| Number of groups for auxiliary basis functions                     24

  RI_INFO| RI metric:                                                    COULOMB
  RI_INFO| Number of auxiliary basis functions:                               70
  GENERAL_INFO| Number of basis functions:                                    12
  GENERAL_INFO| Number of occupied orbitals:                                   1
  GENERAL_INFO| Number of virtual orbitals:                                   11
  RI_INFO| Total memory for (ia|K) integrals:                           0.01 MiB
  RI_INFO| Total memory for G0W0-(nm|K) integrals:                      0.08 MiB
  RI_INFO| Total memory for (ij|K) integrals:                           0.00 MiB
  RI_INFO| Total memory for (ab|K) integrals:                           0.06 MiB
  RI_INFO| Group size for frequency integration:                              24
  INTEG_INFO| Clenshaw-Curtius quadrature
  INTEG_INFO| Number of integration points:                                  100
  INTEG_INFO| Number of integration points per RPA group:                    100
  MATRIX_INFO| Number row processes:                                           6
  MATRIX_INFO| Number column processes:                                        4
  MATRIX_INFO| Row block size:                                                 5
  MATRIX_INFO| Column block size:                                              1
  INTEG_INFO| Scaling parameter:                                         0.20000
  INTEG_INFO| Started with Integration point   1 of 100
  INTEG_INFO| Started with Integration point   2 of 100
  INTEG_INFO| Started with Integration point   3 of 100
  INTEG_INFO| Started with Integration point   4 of 100
  INTEG_INFO| Started with Integration point   5 of 100
  INTEG_INFO| Started with Integration point   6 of 100
  INTEG_INFO| Started with Integration point   7 of 100
  INTEG_INFO| Started with Integration point   8 of 100
  INTEG_INFO| Started with Integration point   9 of 100
  INTEG_INFO| Started with Integration point  10 of 100
  INTEG_INFO| Started with Integration point  11 of 100
  INTEG_INFO| Started with Integration point  12 of 100
  INTEG_INFO| Started with Integration point  13 of 100
  INTEG_INFO| Started with Integration point  14 of 100
  INTEG_INFO| Started with Integration point  15 of 100
  INTEG_INFO| Started with Integration point  16 of 100
  INTEG_INFO| Started with Integration point  17 of 100
  INTEG_INFO| Started with Integration point  18 of 100
  INTEG_INFO| Started with Integration point  19 of 100
  INTEG_INFO| Started with Integration point  20 of 100
  INTEG_INFO| Started with Integration point  21 of 100
  INTEG_INFO| Started with Integration point  22 of 100
  INTEG_INFO| Started with Integration point  23 of 100
  INTEG_INFO| Started with Integration point  24 of 100
  INTEG_INFO| Started with Integration point  25 of 100
  INTEG_INFO| Started with Integration point  26 of 100
  INTEG_INFO| Started with Integration point  27 of 100
  INTEG_INFO| Started with Integration point  28 of 100
  INTEG_INFO| Started with Integration point  29 of 100
  INTEG_INFO| Started with Integration point  30 of 100
  INTEG_INFO| Started with Integration point  31 of 100
  INTEG_INFO| Started with Integration point  32 of 100
  INTEG_INFO| Started with Integration point  33 of 100
  INTEG_INFO| Started with Integration point  34 of 100
  INTEG_INFO| Started with Integration point  35 of 100
  INTEG_INFO| Started with Integration point  36 of 100
  INTEG_INFO| Started with Integration point  37 of 100
  INTEG_INFO| Started with Integration point  38 of 100
  INTEG_INFO| Started with Integration point  39 of 100
  INTEG_INFO| Started with Integration point  40 of 100
  INTEG_INFO| Started with Integration point  41 of 100
  INTEG_INFO| Started with Integration point  42 of 100
  INTEG_INFO| Started with Integration point  43 of 100
  INTEG_INFO| Started with Integration point  44 of 100
  INTEG_INFO| Started with Integration point  45 of 100
  INTEG_INFO| Started with Integration point  46 of 100
  INTEG_INFO| Started with Integration point  47 of 100
  INTEG_INFO| Started with Integration point  48 of 100
  INTEG_INFO| Started with Integration point  49 of 100
  INTEG_INFO| Started with Integration point  50 of 100
  INTEG_INFO| Started with Integration point  51 of 100
  INTEG_INFO| Started with Integration point  52 of 100
  INTEG_INFO| Started with Integration point  53 of 100
  INTEG_INFO| Started with Integration point  54 of 100
  INTEG_INFO| Started with Integration point  55 of 100
  INTEG_INFO| Started with Integration point  56 of 100
  INTEG_INFO| Started with Integration point  57 of 100
  INTEG_INFO| Started with Integration point  58 of 100
  INTEG_INFO| Started with Integration point  59 of 100
  INTEG_INFO| Started with Integration point  60 of 100
  INTEG_INFO| Started with Integration point  61 of 100
  INTEG_INFO| Started with Integration point  62 of 100
  INTEG_INFO| Started with Integration point  63 of 100
  INTEG_INFO| Started with Integration point  64 of 100
  INTEG_INFO| Started with Integration point  65 of 100
  INTEG_INFO| Started with Integration point  66 of 100
  INTEG_INFO| Started with Integration point  67 of 100
  INTEG_INFO| Started with Integration point  68 of 100
  INTEG_INFO| Started with Integration point  69 of 100
  INTEG_INFO| Started with Integration point  70 of 100
  INTEG_INFO| Started with Integration point  71 of 100
  INTEG_INFO| Started with Integration point  72 of 100
  INTEG_INFO| Started with Integration point  73 of 100
  INTEG_INFO| Started with Integration point  74 of 100
  INTEG_INFO| Started with Integration point  75 of 100
  INTEG_INFO| Started with Integration point  76 of 100
  INTEG_INFO| Started with Integration point  77 of 100
  INTEG_INFO| Started with Integration point  78 of 100
  INTEG_INFO| Started with Integration point  79 of 100
  INTEG_INFO| Started with Integration point  80 of 100
  INTEG_INFO| Started with Integration point  81 of 100
  INTEG_INFO| Started with Integration point  82 of 100
  INTEG_INFO| Started with Integration point  83 of 100
  INTEG_INFO| Started with Integration point  84 of 100
  INTEG_INFO| Started with Integration point  85 of 100
  INTEG_INFO| Started with Integration point  86 of 100
  INTEG_INFO| Started with Integration point  87 of 100
  INTEG_INFO| Started with Integration point  88 of 100
  INTEG_INFO| Started with Integration point  89 of 100
  INTEG_INFO| Started with Integration point  90 of 100
  INTEG_INFO| Started with Integration point  91 of 100
  INTEG_INFO| Started with Integration point  92 of 100
  INTEG_INFO| Started with Integration point  93 of 100
  INTEG_INFO| Started with Integration point  94 of 100
  INTEG_INFO| Started with Integration point  95 of 100
  INTEG_INFO| Started with Integration point  96 of 100
  INTEG_INFO| Started with Integration point  97 of 100
  INTEG_INFO| Started with Integration point  98 of 100
  INTEG_INFO| Started with Integration point  99 of 100
  INTEG_INFO| Started with Integration point 100 of 100
  PERFORMANCE| Average DGEMM flop rate (Gflops / MPI rank):                 0.00
  
  
  ******************************************************************************
  **                                                                          **
  **                        GW QUASIPARTICLE ENERGIES                         **
  **                                                                          **
  ******************************************************************************
   
   
  The GW quasiparticle energies are calculated according to: 
   
                      E_GW = E_SCF + Sigc(E_GW) + Sigx - vxc 
   
  Upper equation is solved self-consistently for E_GW, see Eq. (12) in J. Phys.
  Chem. Lett. 9, 306 (2018), doi: 10.1021/acs.jpclett.7b02740
  
  
  ------------
  G0W0 results
  ------------
   
  Molecular orbital   E_SCF (eV)       Sigc (eV)   Sigx-vxc (eV)       E_GW (eV)
     1 ( occ )          -37.8043          0.0816         -3.6692        -41.3919
     2 ( vir )            0.0173         -1.6185          8.2837          6.6825
     3 ( vir )            0.3534         -0.0235          1.0105          1.3405
     4 ( vir )            0.3534         -0.0235          1.0105          1.3405
     5 ( vir )            0.5454         -0.1425          1.3446          1.7475
     6 ( vir )            1.7814         -0.8403          4.3644          5.3056
     7 ( vir )            2.0866         -1.7484          5.9505          6.2888
     8 ( vir )            2.5968         -0.8277          3.6105          5.3796
     9 ( vir )            4.3541         -0.0309          1.4000          5.7231
    10 ( vir )            4.3541         -0.0309          1.4000          5.7231
    11 ( vir )            5.1029         -1.4704          5.2309          8.8633
    12 ( vir )            6.2483         -0.0725          1.4424          7.6182
   
  G0W0 HOMO-LUMO gap (eV)                                                42.7324
  
  ------------------------------------------------------------------------------
  
 *******************************************************************************
 **                                                                           **
 **           Bethe Salpeter equation (BSE) for excitation energies           **
 **               solved without Tamm-Dancoff approximation (TDA)             **
 **                                                                           **
 *******************************************************************************
  
 BSE| No cutoff given for occupied orbitals
 BSE| No cutoff given for empty orbitals
 BSE| First occupied index                                                     1
 BSE| Last empty index (not MO index!)                                        11
 BSE| Energy of first occupied index [eV]                                -41.392
 BSE| Energy of last empty index [eV]                                      7.618
 BSE| Energy difference of first occupied index to HOMO [eV]              -0.000
 BSE| Energy difference of last empty index to LUMO [eV]                   0.936
 BSE| Number of GW-corrected occupied MOs                                      1
 BSE| Number of GW-corrected empty MOs                                        11
 BSE|
 BSE| No truncation of BSE matrices applied
 BSE|

 *** HINT in bse_util.F:1547 :: Keyword NUM_PRINT_EXC is either negative ***
 *** or too large. Printing all computed excitations.                    ***

 BSE| Total peak memory estimate from BSE [GB]                         9.015E-06
 BSE| Peak memory estimate per MPI rank from BSE [GB]                      0.000
 BSE|
 BSE| Diagonalizing aux. matrix with size of A. This will take around 0.E+00 s.
 BSE| Diagonalizing C. This will take around 0.E+00 s.
 BSE|
 BSE|
 BSE| **************************************************************************
 BSE| *      Full ("ABBA") Bethe Salpeter equation (BSE) (i.e. without TDA)    *
 BSE| **************************************************************************
 BSE|
 BSE| The excitations are calculated by diagonalizing the BSE without the TDA:
 BSE|
 BSE|                |A B| |X^n|       |1  0| |X^n|
 BSE|                |B A| |Y^n| = ^n |0 -1| |Y^n|
 BSE|
 BSE| i.e. in index notation:
 BSE|
 BSE|   sum_jb ( A_ia,jb   X_jb^n + B_ia,jb   Y_jb^n ) = ^n X_ia^n
 BSE| - sum_jb ( B_ia,jb   X_jb^n + A_ia,jb   Y_jb^n ) = ^n Y_ia^n
 BSE|
 BSE|
 BSE| i,j:       occupied molecular orbitals, i.e. state in          [   1,   1]
 BSE| a,b:       unoccupied molecular orbitals, i.e. state in        [   2,  12]
 BSE| n:         Excitation index
 BSE|
 BSE| A_ia,jb = (_a-_i) _ij _ab +  * v_ia,jb - W_ij,ab
 BSE| B_ia,jb =  * v_ia,jb - W_ib,aj
 BSE|
 BSE| prelim Ref.: Eqs. (24-27),(30),(35)
 BSE| in PRB 92,045209 (2015); http://dx.doi.org/10.1103/PhysRevB.92.045209 .
 BSE|
 BSE| The BSE is solved for ^n and X_ia^n as a hermitian problem, e.g. Eq.(42)
 BSE| in PRB 92,045209 (2015); http://dx.doi.org/10.1103/PhysRevB.92.045209 .
 BSE|
 BSE| _...:                 GW quasiparticle energy
 BSE| _...:                 Kronecker delta
 BSE| :                     spin-dependent factor
 BSE| v_...:                 Electron-hole exchange interaction
 BSE| W_... = 1/ v_...:     Direct interaction screened by 
 BSE|                        dielectric function (=0)
 BSE|
 BSE|
 BSE| The spin-dependent factor is for the requested Singlet is  = 2.0
 BSE|
 BSE| Excitation energies from solving the BSE without the TDA:
 BSE|
 BSE|     Excitation n   Spin Config       TDA/ABBA   Excitation energy ^n (eV)
 BSE|                1       Singlet         -ABBA-                      34.1655
 BSE|                2       Singlet         -ABBA-                      37.1529
 BSE|                3       Singlet         -ABBA-                      37.2094
 BSE|                4       Singlet         -ABBA-                      37.2094
 BSE|                5       Singlet         -ABBA-                      37.9567
 BSE|                6       Singlet         -ABBA-                      39.6708
 BSE|                7       Singlet         -ABBA-                      40.4102
 BSE|                8       Singlet         -ABBA-                      40.9874
 BSE|                9       Singlet         -ABBA-                      40.9874
 BSE|               10       Singlet         -ABBA-                      42.9688
 BSE|               11       Singlet         -ABBA-                      43.7126
 BSE|
 BSE| Single-particle transitions are built up by (de-)excitations,
 BSE| which we denote by
 BSE|
 BSE|              =>        for excitations, i.e. entries of X_ia^n,
 BSE|              <=        for deexcitations, i.e. entries of Y_ia^n.
 BSE|
 BSE| The following single-particle transitions have significant contributions,
 BSE| i.e. |X_ia^n| > 0.100 or |Y_ia^n| > 0.100, respectively :
 BSE|         -- Quick reminder: HOMO i =    1 and LUMO a =    2 --
 BSE|
 BSE| Excitation n           i =>/<=     a      TDA/ABBA       |X_ia^n|/|Y_ia^n|
 BSE|
 BSE|            1           1    =>     2        -ABBA-                  0.6036
 BSE|            1           1    =>     6        -ABBA-                  0.3433
 BSE|            1           1    =>     8        -ABBA-                  0.1014
 BSE|
 BSE|            2           1    =>     5        -ABBA-                  0.6654
 BSE|            2           1    =>     7        -ABBA-                  0.2196
 BSE|
 BSE|            3           1    =>     4        -ABBA-                  0.7071
 BSE|
 BSE|            4           1    =>     3        -ABBA-                  0.7071
 BSE|
 BSE|            5           1    =>     2        -ABBA-                  0.3633
 BSE|            5           1    =>     6        -ABBA-                  0.5703
 BSE|            5           1    =>    11        -ABBA-                  0.1990
 BSE|
 BSE|            6           1    =>     5        -ABBA-                  0.2310
 BSE|            6           1    =>     7        -ABBA-                  0.6630
 BSE|
 BSE|            7           1    =>     6        -ABBA-                  0.1552
 BSE|            7           1    =>     8        -ABBA-                  0.6696
 BSE|            7           1    =>    11        -ABBA-                  0.1648
 BSE|
 BSE|            8           1    =>     9        -ABBA-                  0.7071
 BSE|
 BSE|            9           1    =>    10        -ABBA-                  0.7071
 BSE|
 BSE|           10           1    =>     7        -ABBA-                  0.1157
 BSE|           10           1    =>    12        -ABBA-                  0.6947
 BSE|
 BSE|           11           1    =>     6        -ABBA-                  0.1815
 BSE|           11           1    =>     8        -ABBA-                  0.1983
 BSE|           11           1    =>    11        -ABBA-                  0.6533
 BSE|
 BSE| Transition moments d_r^n (with r(x,y,z), in atomic units)
 BSE| and oscillator strength f^n of excitation level n are obtained from
 BSE|
 BSE|    d_r^n = sum_ia sqrt(2) < _i | r | _a > ( X_ia^n + Y_ia^n )
 BSE|
 BSE|        f^n = 2/3 * ^n sum_r(x,y,z) ( d_r^n )^2
 BSE|
 BSE| where we introduced
 BSE|
 BSE| _i:   occupied molecular orbitals,
 BSE| _a:   empty molecular orbitals and
 BSE|   r:   position operator.
 BSE|
 BSE| prelim Ref.: Eqs. (23), (24)
 BSE| in J. Chem. Phys. 152, 044105 (2020); https://doi.org/10.1063/1.5123290
 BSE|
 BSE| Optical properties from solving the BSE without the TDA:
 BSE|
 BSE|  Excitation n  TDA/ABBA        d_x^n     d_y^n     d_z^n Osc. strength f^n
 BSE|             1    -ABBA-       -0.235    -0.000    -0.000             0.046
 BSE|             2    -ABBA-       -0.000     0.000    -0.000             0.000
 BSE|             3    -ABBA-       -0.000     0.000    -0.000             0.000
 BSE|             4    -ABBA-       -0.000    -0.000    -0.000             0.000
 BSE|             5    -ABBA-        0.546     0.000    -0.000             0.277
 BSE|             6    -ABBA-        0.000     0.000     0.000             0.000
 BSE|             7    -ABBA-       -1.257     0.000    -0.000             1.563
 BSE|             8    -ABBA-       -0.000     0.586     0.586             0.690
 BSE|             9    -ABBA-       -0.000    -0.586     0.586             0.690
 BSE|            10    -ABBA-       -0.000    -0.000    -0.000             0.000
 BSE|            11    -ABBA-       -0.375    -0.000    -0.000             0.150
 BSE|
 BSE| Check for Thomas-Reiche-Kuhn sum rule
 BSE|
 BSE|                             N_e = _n f^n
 BSE|
 BSE| Number of electrons N_e:                                                 2
 BSE| Sum over oscillator strengths _n f^n :                              3.417
 BSE|
 BSE|
 BSE|
 BSE| The BSE was successfully calculated. Have a nice day!

  Total RI-RPA Time=                                                    0.289127


 ENERGY| Total FORCE_EVAL ( QS ) energy [hartree]             -1.157703133540043

 -------------------------------------------------------------------------------
 -                                                                             -
 -                                DBCSR STATISTICS                             -
 -                                                                             -
 -------------------------------------------------------------------------------
 COUNTER                                    TOTAL       BLAS       SMM       ACC
 flops     1 x     1 x     6                 1584     100.0%      0.0%      0.0%     
 flops     6 x     6 x     6                 3456     100.0%      0.0%      0.0%     
 flops     1 x    11 x     6                17424     100.0%      0.0%      0.0%     
 flops     6 x     1 x     6                40320     100.0%      0.0%      0.0%     
 flops     6 x     6 x    12               119232     100.0%      0.0%      0.0%     
 flops    11 x    11 x     6               203280     100.0%      0.0%      0.0%     
 flops     6 x    11 x     6               221760     100.0%      0.0%      0.0%     
 flops    12 x    12 x     6               241920     100.0%      0.0%      0.0%     
 flops     6 x    12 x     6               255744     100.0%      0.0%      0.0%     
 flops inhomo. stacks                           0       0.0%      0.0%      0.0%
 flops total                         1.104720E+06     100.0%      0.0%      0.0%
 flops max/rank                    178.056000E+03     100.0%      0.0%      0.0%
 matmuls inhomo. stacks                         0       0.0%      0.0%      0.0%
 matmuls total                               1826     100.0%      0.0%      0.0%
 number of processed stacks                   944     100.0%      0.0%      0.0%
 average stack size                                     1.9       0.0       0.0
 marketing flops                   999.888000E+03
 -------------------------------------------------------------------------------
 # multiplications                             75
 max memory usage/rank               3.261149E+09
 # max total images/rank                        3
 # max 3D layers                                1
 # MPI messages exchanged                   23256
 MPI messages size (bytes):
  total size                       470.016000E+03
  min size                           0.000000E+00
  max size                           1.152000E+03
  average size                      20.210526E+00
 MPI breakdown and total messages size (bytes):
             size <=      128               22808                        0
       128 < size <=     8192                 448                   470016
      8192 < size <=    32768                   0                        0
     32768 < size <=   131072                   0                        0
    131072 < size <=  4194304                   0                        0
   4194304 < size <= 16777216                   0                        0
  16777216 < size                               0                        0
 -------------------------------------------------------------------------------

 *** WARNING in dbcsr_mm.F:301 :: Using a non-square number of MPI ranks ***
 *** might lead to poor performance. Used ranks: 24 Suggested: 25 49     ***

 -------------------------------------------------------------------------------
 -                                                                             -
 -                      DBCSR MESSAGE PASSING PERFORMANCE                      -
 -                                                                             -
 -------------------------------------------------------------------------------
 ROUTINE             CALLS      AVE VOLUME [Bytes]
 MP_Bcast               10                     12.
 MP_Allreduce          520                      9.
 MP_Alltoall          1660                   1607.
 MP_ISend             2238                    116.
 MP_IRecv             2238                     63.
 -------------------------------------------------------------------------------

 -------------------------------------------------------------------------------
 -                                                                             -
 -                                DBM STATISTICS                               -
 -                                                                             -
 -------------------------------------------------------------------------------
    M  x    N  x    K                                          COUNT     PERCENT
    ?  x    ?  x    ?                                          15552      61.36%
   ??  x    ?  x    ?                                           9792      38.64%
 -------------------------------------------------------------------------------
 Memory consumption                            Number of allocations  Size [MiB]
 Host                                                             17           0
 -------------------------------------------------------------------------------

 -------------------------------------------------------------------------------
 -                                                                             -
 -                                GRID STATISTICS                              -
 -                                                                             -
 -------------------------------------------------------------------------------
 LP    KERNEL             BACKEND                              COUNT     PERCENT
 2     collocate ortho    CPU                                   2256      48.45%
 2     integrate ortho    CPU                                   2256      48.45%
 0     collocate general  CPU                                     96       2.06%
 0     integrate general  CPU                                     48       1.03%
 -------------------------------------------------------------------------------

 MEMORY| Estimated peak process memory [MiB]                                3232

 -------------------------------------------------------------------------------
 ----                             MULTIGRID INFO                            ----
 -------------------------------------------------------------------------------
 count for grid        1:          11613          cutoff [a.u.]          250.00
 count for grid        2:           8751          cutoff [a.u.]           83.33
 count for grid        3:           5001          cutoff [a.u.]           27.78
 count for grid        4:           2307          cutoff [a.u.]            9.26
 total gridlevel count  :          27672

 -------------------------------------------------------------------------------
 -                                                                             -
 -                         MESSAGE PASSING PERFORMANCE                         -
 -                                                                             -
 -------------------------------------------------------------------------------

 ROUTINE             CALLS      AVE VOLUME [Bytes]
 MP_Group              144
 MP_Bcast              266                 615688.
 MP_Allreduce         3257                    976.
 MP_Sync               647
 MP_Alltoall          1313              108301757.
 MP_SendRecv          2211                 527848.
 MP_ISendRecv         4370                 267530.
 MP_Wait             10721
 MP_comm_split         100
 MP_ISend             5529                2663149.
 MP_IRecv             5481                2686503.
 -------------------------------------------------------------------------------


 -------------------------------------------------------------------------------
 -                                                                             -
 -                           R E F E R E N C E S                               -
 -                                                                             -
 -------------------------------------------------------------------------------
 
 CP2K version 2025.1 (Development Version), the CP2K developers group (2025).
 CP2K is freely available from https://www.cp2k.org/ .
 
 T. D. Kuehne, M. Iannuzzi, M. Del Ben, V. V. Rybkin, P. Seewald, F. Stein, T. 
 Laino, R. Z. Khaliullin, O. Schuett, F. Schiffmann, D. Golze, J. Wilhelm, S. 
 Chulkov, M. H. Bani-Hashemian, V. Weber, U. Borstnik, M. Taillefumier, A. S. 
 Jakobovits, A. Lazzaro, H. Pabst, T. Mueller, R. Schade, M. Guidon, S. 
 Andermatt, N. Holmberg, G. K. Schenter, A. Hehn, A. Bussy, F. Belleflamme, G. 
 Tabacchi, A. Gloess, M. Lass, I. Bethune, C. J. Mundy, C. Plessl, M. Watkins, 
 J. VandeVondele, M. Krack, J. Hutter.
 J. Chem. Phys. 152, 194103 (2020).
 CP2K: An electronic structure and molecular dynamics software package - 
 Quickstep: Efficient and accurate electronic structure calculations.
 https://doi.org/10.1063/5.0007045

 J. Wilhelm, D. Golze, L. Talirz, J. Hutter, C. A. Pignedoli.
 J. Phys. Chem. Lett. 9, 306-312 (2018).
 Toward GW calculations on thousands of atoms.
 https://doi.org/10.1021/acs.jpclett.7b02740

 J. Wilhelm, J. Hutter.
 Phys. Rev. B 95, 235123 (2017).
 Periodic GW calculations in the Gaussian and plane-waves scheme.
 https://doi.org/10.1103/PhysRevB.95.235123

 O. Schuett, P. Messmer, J. Hutter, J. VandeVondele.
 Electronic Structure Calculations on Graphics Processing Units, 173-190 (2016).
 GPU-Accelerated Sparse Matrix-Matrix Multiplication for Linear Scaling Density 
 Functional Theory.
 https://doi.org/10.1002/9781118670712.ch8

 J. Wilhelm, M. Del Ben, J. Hutter.
 J. Chem. Theory Comput. 12, 3623-3635 (2016).
 GW in the Gaussian and plane waves scheme with application to linear acenes.
 https://doi.org/10.1021/acs.jctc.6b00380

 M. Del Ben, O. Schuett, T. Wentz, P. Messmer, J. Hutter, J. VandeVondele.
 Comput. Phys. Commun. 187, 120-129 (2015).
 Enabling simulation at the fifth rung of DFT: Large scale RPA calculations with 
 excellent time to solution.
 https://doi.org/10.1016/j.cpc.2014.10.021

 J. Hutter, M. Iannuzzi, F. Schiffmann, J. VandeVondele.
 WIREs Comput Mol Sci. 4, 15-25 (2014).
 CP2K: atomistic simulations of condensed matter systems.
 https://doi.org/10.1002/wcms.1159

 U. Borstnik, J. VandeVondele, V. Weber, J. Hutter.
 Parallel Comput. 40, 47-58 (2014).
 Sparse matrix multiplication: The distributed block-compressed sparse row 
 library.
 https://doi.org/10.1016/j.parco.2014.03.012

 M. Del Ben, J. Hutter, J. VandeVondele.
 J. Chem. Theory Comput. 9, 2654-2671 (2013).
 Electron Correlation in the Condensed Phase from a Resolution of Identity 
 Approach Based on the Gaussian and Plane Waves Scheme.
 https://doi.org/10.1021/ct4002202

 M. Del Ben, J. Hutter, J. VandeVondele.
 J. Chem. Theory Comput. 8, 4177-4188 (2012).
 Second-Order Moller-Plesset Perturbation Theory in the Condensed Phase: An 
 Efficient and Massively Parallel Gaussian and Plane Waves Approach.
 https://doi.org/10.1021/ct300531w

 M. Guidon, J. Hutter, J. VandeVondele.
 J. Chem. Theory Comput. 5, 3010-3021 (2009).
 Robust Periodic Hartree-Fock Exchange for Large-Scale Simulations Using 
 Gaussian Basis Sets.
 https://doi.org/10.1021/ct900494g

 M. Guidon, F. Schiffmann, J. Hutter, J. VandeVondele.
 J. Chem. Phys. 128, 214104 (2008).
 Ab initio molecular dynamics using hybrid density functionals.
 https://doi.org/10.1063/1.2931945

 L. Genovese, T. Deutsch, S. Goedecker.
 J. Chem. Phys. 127, 054704 (2007).
 Efficient and accurate three-dimensional Poisson solver for surface problems.
 https://doi.org/10.1063/1.2754685

 J. VandeVondele, J. Hutter.
 J. Chem. Phys. 127, 114105 (2007).
 Gaussian basis sets for accurate calculations on molecular systems in gas and 
 condensed phases.
 https://doi.org/10.1063/1.2770708

 L. Genovese, T. Deutsch, A. Neelov, S. Goedecker, G. Beylkin.
 J. Chem. Phys. 125, 074105 (2006).
 Efficient solution of Poisson's equation with free boundary conditions.
 https://doi.org/10.1063/1.2335442

 M. Frigo, S. G. Johnson.
 Proc. IEEE 93, 216-231 (2005).
 The design and implementation of FFTW3.
 https://doi.org/10.1109/JPROC.2004.840301

 M. Krack, M. Parrinello.
 Phys. Chem. Chem. Phys. 2, 2105-2112 (2000).
 All-electron ab-initio molecular dynamics.
 https://doi.org/10.1039/b001167n

 G. Lippert, J. Hutter, M. Parrinello.
 Theor. Chem. Acc. 103, 124-140 (1999).
 The Gaussian and augmented-plane-wave density functional method for ab initio 
 molecular dynamics simulations.
 https://doi.org/10.1007/s002140050523

 J. P. Perdew, K. Burke, M. Ernzerhof.
 Phys. Rev. Lett. 77, 3865-3868 (1996).
 Generalized gradient approximation made simple.
 https://doi.org/10.1103/PhysRevLett.77.3865


 -------------------------------------------------------------------------------
 -                                                                             -
 -                                T I M I N G                                  -
 -                                                                             -
 -------------------------------------------------------------------------------
 SUBROUTINE                       CALLS  ASD         SELF TIME        TOTAL TIME
                                MAXIMUM       AVERAGE  MAXIMUM  AVERAGE  MAXIMUM
 CP2K                                 1  1.0    0.039    0.061  251.296  251.297
 qs_energies                          1  2.0    0.000    0.001  250.071  250.306
 scf_env_do_scf                       1  3.0    0.000    0.000  245.819  245.820
 scf_env_do_scf_inner_loop           46  4.0    0.001    0.003  245.819  245.820
 qs_ks_build_kohn_sham_matrix        47  7.0    0.008    0.010  186.170  186.190
 qs_ks_update_qs_env                 46  5.0    0.000    0.000  183.820  183.837
 rebuild_ks_matrix                   46  6.0    0.000    0.000  183.817  183.835
 fft_wrap_pw1pw2                    979  9.9    0.023    0.029  113.837  115.247
 fft_wrap_pw1pw2_250                697 11.1    5.092    5.714  110.391  111.714
 fft3d_ps                           979 11.9   50.124   51.692   89.551   90.697
 pw_poisson_solve                    47  8.0    2.062    2.094   78.156   78.199
 qs_vxc_create                       47  8.0    0.001    0.001   67.586   67.586
 xc_vxc_pw_create                    46  9.0    1.327    1.404   67.585   67.585
 ps_wavelet_solve                    47  9.0   43.224   45.917   51.368   51.487
 xc_pw_derive                       276 11.0    0.003    0.004   48.450   49.198
 mp_alltoall_d54                     47 10.0    5.052   40.248    5.052   40.248
 xc_rho_set_and_dset_create          46 10.0    1.025    1.243   33.396   34.296
 gspace_mixing                       45  5.0    0.935    0.956   34.072   34.073
 xc_pw_divergence                    46 10.0    0.002    0.002   32.202   32.859
 mp_alltoall_z22v                   979 13.9   24.144   30.813   24.144   30.813
 qs_rho_update_rho_low               47  5.0    0.000    0.001   28.207   28.221
 calculate_rho_elec                  47  6.0    1.036    1.069   28.200   28.200
 broyden_mixing                      45  6.0   24.913   25.680   25.472   25.826
 x_to_yz                            511 13.1   10.368   10.544   22.397   22.981
 density_rs2pw                       47  7.0    0.003    0.004   21.368   21.494
 yz_to_x                            468 12.8    4.901    5.953   17.015   21.176
 sum_up_and_integrate                47  8.0    0.001    0.001   14.821   14.846
 integrate_v_rspace                  47  9.0    0.001    0.002   14.540   14.580
 potential_pw2rs                     47 10.0    0.043    0.046   14.458   14.500
 prepare_gapw_den                    47  8.0    0.001    0.001   11.410   11.546
 put_rho0_on_grid                    47  9.0    0.969    0.994   11.409   11.544
 pw_scatter_p                       511 12.1    8.116    8.292    8.116    8.292
 transfer_pw2rs                     236 10.5    0.004    0.005    7.773    7.804
 xc_functional_eval                  46 11.0    0.001    0.001    6.874    7.558
 pbe_lda_eval                        46 12.0    6.873    7.557    6.873    7.557
 pw_gather_p                        468 11.8    6.800    7.358    6.800    7.358
 transfer_rs2pw                     237  8.4    0.007    0.009    6.567    6.658
 pw_derive                          417 11.3    5.560    5.820    5.560    5.820
 transfer_pw2rs_250                  95 10.9    2.337    2.529    5.703    5.783
 grid_collocate_task_list            47  7.0    5.526    5.621    5.526    5.621
 mp_waitany                        5130 11.4    5.265    5.560    5.265    5.560
 transfer_rs2pw_250                  96  9.9    2.461    2.527    4.780    4.910
 mp_alltoall_d45                     48 10.0    2.634    3.474    2.634    3.474
 mp_sum_d                          1227  5.5    1.631    3.365    1.631    3.365
 integrate_vhg0_rspace               47  8.0    0.002    0.002    3.311    3.332
 fft_wrap_pw1pw2_90                  94 10.5    0.142    0.196    2.822    3.304
 cp2k_distribution_to_z_slices       47  9.0    1.988    2.051    2.981    3.287
 pw_copy                            700 10.6    2.986    3.175    2.986    3.175
 mp2_main                             1  3.0    0.000    0.000    2.811    3.045
 pw_copy_to_array                   468 11.8    2.655    2.932    2.655    2.932
 pw_poisson_set                      48  8.9    0.002    0.002    2.775    2.818
 pw_axpy                            512  9.2    2.389    2.634    2.389    2.634
 mp_alltoall_d11v                   896  9.5    1.808    2.520    1.808    2.520
 compute_vec_Sigma_x_minus_vxc_       1  4.0    0.000    0.000    2.360    2.360
 hfx_ks_matrix                       47  8.0    0.002    0.002    2.100    2.168
 integrate_four_center               47  9.0    0.958    2.012    2.098    2.165
 mp_sync                            647  9.2    1.094    2.023    1.094    2.023
 pw_poisson_rebuild                  47  9.0    0.000    0.000    1.833    1.859
 ps_wavelet_create                    1 10.0    0.000    0.000    1.833    1.859
 RS_z_slice_distribution              1 11.0    1.673    1.737    1.833    1.859
 rs_grid_zero                       238 11.1    1.743    1.769    1.743    1.769
 pw_integral_ab_c1d_c1d_gs           47  9.0    1.395    1.533    1.645    1.748
 pw_copy_from_array                 511 12.1    1.430    1.687    1.430    1.687
 transfer_pw2rs_90                   47 12.0    0.345    0.376    0.975    1.062
 pw_zero                            278 10.3    0.966    1.011    0.966    1.011
 init_scf_run                         1  3.0    0.000    0.000    0.935    0.935
 scf_env_initial_rho_setup            1  4.0    0.000    0.000    0.931    0.932
 transfer_pw2rs_30                   47 12.0    0.527    0.563    0.841    0.878
 transfer_rs2pw_90                   47  9.0    0.283    0.298    0.803    0.867
 qs_init_subsys                       1  2.0    0.002    0.002    0.842    0.842
 qs_env_setup                         1  3.0    0.000    0.000    0.838    0.838
 qs_env_rebuild_pw_env                2  3.5    0.000    0.000    0.837    0.838
 pw_env_rebuild                       1  5.0    0.001    0.001    0.836    0.837
 pw_grid_setup                        4  6.0    0.000    0.000    0.831    0.832
 pw_grid_setup_internal               4  7.0    0.020    0.024    0.831    0.832
 transfer_rs2pw_30                   47  9.0    0.413    0.442    0.781    0.805
 mp_waitall_1                      8966 12.1    0.548    0.795    0.548    0.795
 pw_grid_sort                         4  8.0    0.470    0.474    0.666    0.671
 scale_and_distribute                94 10.0    0.616    0.649    0.616    0.649
 mp_sum_dm                           51  7.4    0.371    0.624    0.371    0.624
 Vh_1c_gg_integrals                  47  8.0    0.001    0.001    0.177    0.611
 mp_max_i                           516  2.6    0.247    0.560    0.247    0.560
 mp_sendrecv_dv                    2162 10.0    0.487    0.533    0.487    0.533
 fft_wrap_pw1pw2_30                  94 10.5    0.023    0.026    0.489    0.513
 mp_irecv_dm3                      1710 11.4    0.246    0.456    0.246    0.456
 mp_sum_i                            19  9.5    0.235    0.391    0.235    0.391
 restraint_control                    1  2.0    0.000    0.000    0.235    0.390
 mp2_main_alloc_hfx                   1  4.0    0.156    0.390    0.156    0.390
 qs_scf_new_mos                      46  5.0    0.001    0.001    0.320    0.369
 qs_energies_init_hamiltonians        1  3.0    0.000    0.000    0.355    0.355
 pw_scale                           185  9.5    0.312    0.345    0.312    0.345
 qs_env_update_s_mstruct              1  4.0    0.000    0.000    0.311    0.311
 calculate_rho_core                   1  5.0    0.020    0.020    0.293    0.308
 mixing_init                          1  5.0    0.297    0.307    0.307    0.308
 mp2_gpw_main                         1  4.0    0.000    0.000    0.279    0.289
 transfer_pw2rs_10                   47 12.0    0.116    0.121    0.250    0.273
 mp_isend_dm3                      1710 11.4    0.125    0.246    0.125    0.246
 mp_isendrecv_dv                   4324 12.0    0.114    0.223    0.114    0.223
 transfer_rs2pw_10                   47  9.0    0.078    0.082    0.196    0.204
 sort_shells                          4  9.0    0.196    0.199    0.196    0.199
 rpa_ri_compute_en                    1  5.0    0.000    0.000    0.196    0.196
 rpa_num_int                          1  6.0    0.001    0.001    0.194    0.195
 mp_isend_dv                       4622 11.7    0.129    0.181    0.129    0.181
 copy_dbcsr_to_fm                    69  6.6    0.001    0.002    0.115    0.164
 mp_sum_dv                         1132 10.7    0.099    0.162    0.099    0.162
 xc_pw_smooth                        46 10.0    0.000    0.000    0.126    0.161
 scf_post_calculation_gpw             1  3.0    0.000    0.000    0.151    0.151
 write_available_results              1  4.0    0.000    0.000    0.151    0.151
 write_mo_free_results                1  5.0    0.026    0.033    0.151    0.151
 dbcsr_desymmetrize_deep             71  7.5    0.002    0.002    0.091    0.137
 mp_alltoall_i22                    236  9.2    0.082    0.127    0.082    0.127
 fft_wrap_pw1pw2_10                  94 10.5    0.005    0.006    0.112    0.126
 eigensolver_symm                    47  6.0    0.002    0.002    0.109    0.109
 pw_grid_assign                       4  8.0    0.103    0.106    0.105    0.109
 calculate_dm_sparse                 46  6.0    0.000    0.000    0.106    0.107
 cp_fm_syevd                         52  6.9    0.000    0.000    0.107    0.107
 cp_dbcsr_plus_fm_fm_t               46  7.0    0.001    0.001    0.106    0.107
 rpa_num_int_RPA_matrix_operati     100  7.0    0.001    0.002    0.098    0.099
 dbcsr_multiply_generic              75  8.1    0.003    0.004    0.092    0.093
 rs_gather_matrices                  47 10.0    0.001    0.001    0.059    0.080
 cp_fm_redistribute_end              52  7.9    0.047    0.077    0.048    0.078
 calc_mat_Q                         100  8.0    0.000    0.000    0.074    0.074
 contract_S_to_Q                    100  9.0    0.000    0.000    0.073    0.073
 grid_integrate_task_list            47 10.0    0.022    0.071    0.022    0.071
 parallel_gemm_fm                   311  8.7    0.000    0.000    0.068    0.069
 parallel_gemm_fm_gemm              311  9.7    0.000    0.000    0.067    0.068
 cp_fm_gemm                         311 10.7    0.067    0.068    0.067    0.068
 compute_GW_self_energy             100  7.0    0.001    0.001    0.066    0.067
 mp2_ri_gpw_compute_in                1  5.0    0.000    0.000    0.067    0.067
 calculate_hirshfeld_normalizat       1  6.0    0.000    0.000    0.059    0.066
 mp2_ri_gpw_compute_in_loop           1  6.0    0.000    0.000    0.063    0.063
 hirshfeld_integration                1  6.0    0.000    0.001    0.058    0.060
 cp_fm_syevd_base                    52  7.9    0.030    0.060    0.030    0.060
 contract_B_L                         4  7.0    0.001    0.001    0.051    0.055
 cp_fm_to_fm_submat_general         112 10.1    0.054    0.054    0.054    0.054
 dbcsr_complete_redistribute        165  8.5    0.006    0.007    0.050    0.051
 make_m2s                           150  9.1    0.003    0.003    0.048    0.049
 build_core_hamiltonian_matrix        1  4.0    0.000    0.000    0.043    0.043
 overlap_condnum                      1  5.0    0.000    0.000    0.042    0.042
 create_qs_kind_set                   1  2.0    0.000    0.000    0.040    0.040
 read_qs_kind                         1  3.0    0.009    0.016    0.040    0.040
 dbt_total                            8  8.0    0.000    0.000    0.038    0.038
 compute_GW_self_energy_deep        100  8.0    0.006    0.006    0.035    0.036
 dbt_contract                         4  9.0    0.001    0.001    0.036    0.036
 parser_read_line                  1231  4.0    0.000    0.000    0.030    0.032
 pw_grid_remap                        4  8.0    0.014    0.014    0.025    0.031
 parser_read_line_low                 5  5.0    0.004    0.011    0.030    0.031
 broadcast_input_information          5  6.0    0.007    0.008    0.026    0.030
 multiply_cannon                     75  9.1    0.006    0.006    0.029    0.029
 cp_fm_redistribute_start            52  7.9    0.023    0.023    0.028    0.029
 mp_comm_split_direct                48 14.5    0.018    0.028    0.018    0.028
 cp_fm_cholesky_invert              101  8.0    0.025    0.028    0.025    0.028
 copy_fm_to_dbcsr                    96  8.1    0.000    0.000    0.027    0.027
 mp_sum_l                           799  5.6    0.021    0.027    0.021    0.027
 qs_create_task_list                  1  5.0    0.000    0.000    0.018    0.027
 generate_qs_task_list                1  6.0    0.000    0.000    0.018    0.027
 start_bse_calculation                1  7.0    0.000    0.000    0.026    0.026
 offload_free_buffer                 55  8.1    0.020    0.026    0.020    0.026
 distribute_tasks                     1  7.0    0.000    0.000    0.017    0.026
 dbt_tas_multiply                     8 11.5    0.000    0.000    0.025    0.025
 dbt_tas_total                        8 12.5    0.001    0.001    0.025    0.025
 load_balance_distributed             2  8.0    0.000    0.000    0.016    0.025
 -------------------------------------------------------------------------------

 The number of warnings for this run is : 1
 
 -------------------------------------------------------------------------------
  **** **** ******  **  PROGRAM ENDED AT                 2025-03-08 01:34:59.825
 ***** ** ***  *** **   PROGRAM RAN ON                              i02r03c03s12
 **    ****   ******    PROGRAM RAN BY                                   di38fab
 ***** **    ** ** **   PROGRAM PROCESS ID                               2861555
  **** **  *******  **  PROGRAM STOPPED IN /hppfs/scratch/04/di38fab/05_MOL/W4-1
                                           1+ALK/h2/SZVSR
