 DBCSR| CPU Multiplication driver                                           BLAS (U)
 DBCSR| Multrec recursion limit                                              512 (U)
 DBCSR| Multiplication stack size                                           1000 (D)
 DBCSR| Maximum elements for images                                    UNLIMITED (U)
 DBCSR| Multiplicative factor virtual images                                   1 (U)
 DBCSR| Use multiplication densification                                       T (D)
 DBCSR| Multiplication size stacks                                             3 (U)
 DBCSR| Use memory pool for CPU allocation                                     F (U)
 DBCSR| Number of 3D layers                                               SINGLE (U)
 DBCSR| Use MPI memory allocation                                              F (U)
 DBCSR| Use RMA algorithm                                                      F (U)
 DBCSR| Use Communication thread                                               T (U)
 DBCSR| Communication thread load                                             75 (D)
 DBCSR| MPI: My process id                                                     0
 DBCSR| MPI: Number of processes                                              24
 DBCSR| OMP: Current number of threads                                         4
 DBCSR| OMP: Max number of threads                                             4
 DBCSR| Split modifier for TAS multiplication algorithm                  1.0E+00 (U)


  **** **** ******  **  PROGRAM STARTED AT               2025-03-09 12:56:45.025
 ***** ** ***  *** **   PROGRAM STARTED ON                          i03r08c06s10
 **    ****   ******    PROGRAM STARTED BY                               di38fab
 ***** **    ** ** **   PROGRAM PROCESS ID                               3653084
  **** **  *******  **  PROGRAM STARTED IN /hppfs/scratch/04/di38fab/05_MOL/W4-1
                                           1+ALK/c2/aug-cc-pVDZ

 CP2K| version string:                 CP2K version 2025.1 (Development Version)
 CP2K| source code revision number:                                  git:47877ba
 CP2K| cp2kflags: omp libint fftw3 libxc parallel scalapack max_contr=4         
 CP2K| is freely available from                            https://www.cp2k.org/
 CP2K| Program compiled at                          Thu Feb 20 16:00:34 CET 2025
 CP2K| Program compiled on                                               login04
 CP2K| Program compiled for                                        Supermuc-foss
 CP2K| Data directory path          /hppfs/work/pn36zo/di38fab/newcp2k/cp2k/data
 CP2K| Input file name                                                    GW.inp

 GLOBAL| Force Environment number                                              1
 GLOBAL| Basis set file name            /hppfs/scratch/04/di38fab/04_TMD/BASIS_A
 GLOBAL| Potential file name            /hppfs/work/pn36zo/di38fab/cp2k/data/ALL
 GLOBAL| MM Potential file name                                     MM_POTENTIAL
 GLOBAL| Coordinate file name                                      __STD_INPUT__
 GLOBAL| Method name                                                        CP2K
 GLOBAL| Project name                                                       MoS2
 GLOBAL| Run type                                                         ENERGY
 GLOBAL| FFT library                                                       FFTW3
 GLOBAL| Diagonalization library                                       ScaLAPACK
 GLOBAL| DGEMM library                                                      BLAS
 GLOBAL| Orthonormality check for eigenvectors                          DISABLED
 GLOBAL| Matrix multiplication library                                 ScaLAPACK
 GLOBAL| All-to-all communication in single precision                          F
 GLOBAL| FFTs using library dependent lengths                                  F
 GLOBAL| Grid backend                                                       AUTO
 GLOBAL| Global print level                                               MEDIUM
 GLOBAL| MPI I/O enabled                                                       T
 GLOBAL| Total number of message passing processes                            24
 GLOBAL| Number of threads for this process                                    4
 GLOBAL| This output is from process                                           0
 GLOBAL| OpenMP stack size per thread (OMP_STACKSIZE)                    default
 GLOBAL| CPU model name             Intel(R) Xeon(R) Platinum 8174 CPU @ 3.10GHz

 MEMORY| system memory details [Kb]
 MEMORY|                        rank 0           min           max       average
 MEMORY| MemTotal             98436664      98436664      98436664      98436664
 MEMORY| MemFree              83690552      83690552      83808488      83749520
 MEMORY| Buffers                     0             0             0             0
 MEMORY| Cached                2430124       2430124       2447792       2438958
 MEMORY| Slab                  1259156       1259156       1261152       1260154
 MEMORY| SReclaimable           272524        272524        278180        275352
 MEMORY| MemLikelyFree        86393200      86393200      86534460      86463830


 *** Fundamental physical constants (SI units) ***

 *** Literature: B. J. Mohr and B. N. Taylor,
 ***             CODATA recommended values of the fundamental physical
 ***             constants: 2006, Web Version 5.1
 ***             http://physics.nist.gov/constants

 Speed of light in vacuum [m/s]                             2.99792458000000E+08
 Magnetic constant or permeability of vacuum [N/A**2]       1.25663706143592E-06
 Electric constant or permittivity of vacuum [F/m]          8.85418781762039E-12
 Planck constant (h) [J*s]                                  6.62606896000000E-34
 Planck constant (h-bar) [J*s]                              1.05457162825177E-34
 Elementary charge [C]                                      1.60217648700000E-19
 Electron mass [kg]                                         9.10938215000000E-31
 Electron g factor [ ]                                     -2.00231930436220E+00
 Proton mass [kg]                                           1.67262163700000E-27
 Fine-structure constant                                    7.29735253760000E-03
 Rydberg constant [1/m]                                     1.09737315685270E+07
 Avogadro constant [1/mol]                                  6.02214179000000E+23
 Boltzmann constant [J/K]                                   1.38065040000000E-23
 Atomic mass unit [kg]                                      1.66053878200000E-27
 Bohr radius [m]                                            5.29177208590000E-11

 *** Conversion factors ***

 [u] -> [a.u.]                                              1.82288848426455E+03
 [Angstrom] -> [Bohr] = [a.u.]                              1.88972613288564E+00
 [a.u.] = [Bohr] -> [Angstrom]                              5.29177208590000E-01
 [a.u.] -> [s]                                              2.41888432650478E-17
 [a.u.] -> [fs]                                             2.41888432650478E-02
 [a.u.] -> [J]                                              4.35974393937059E-18
 [a.u.] -> [N]                                              8.23872205491840E-08
 [a.u.] -> [K]                                              3.15774647902944E+05
 [a.u.] -> [kJ/mol]                                         2.62549961709828E+03
 [a.u.] -> [kcal/mol]                                       6.27509468713739E+02
 [a.u.] -> [Pa]                                             2.94210107994716E+13
 [a.u.] -> [bar]                                            2.94210107994716E+08
 [a.u.] -> [atm]                                            2.90362800883016E+08
 [a.u.] -> [eV]                                             2.72113838565563E+01
 [a.u.] -> [Hz]                                             6.57968392072181E+15
 [a.u.] -> [1/cm] (wave numbers)                            2.19474631370540E+05
 [a.u./Bohr**2] -> [1/cm]                                   5.14048714338585E+03
 

 CELL_TOP| Volume [angstrom^3]:                                     27000.000000
 CELL_TOP| Vector a [angstrom    30.000     0.000     0.000   |a| =    30.000000
 CELL_TOP| Vector b [angstrom     0.000    30.000     0.000   |b| =    30.000000
 CELL_TOP| Vector c [angstrom     0.000     0.000    30.000   |c| =    30.000000
 CELL_TOP| Angle (b,c), alpha [degree]:                                90.000000
 CELL_TOP| Angle (a,c), beta  [degree]:                                90.000000
 CELL_TOP| Angle (a,b), gamma [degree]:                                90.000000
 CELL_TOP| Numerically orthorhombic:                                         YES
 CELL_TOP| Periodicity                                                      NONE

 GENERATE|  Preliminary Number of Bonds generated:                             0
 GENERATE|  Achieved consistency in connectivity generation.

 CELL| Volume [angstrom^3]:                                         27000.000000
 CELL| Vector a [angstrom]:      30.000     0.000     0.000   |a| =    30.000000
 CELL| Vector b [angstrom]:       0.000    30.000     0.000   |b| =    30.000000
 CELL| Vector c [angstrom]:       0.000     0.000    30.000   |c| =    30.000000
 CELL| Angle (b,c), alpha [degree]:                                    90.000000
 CELL| Angle (a,c), beta  [degree]:                                    90.000000
 CELL| Angle (a,b), gamma [degree]:                                    90.000000
 CELL| Numerically orthorhombic:                                             YES
 CELL| Periodicity                                                          NONE

 CELL_REF| Volume [angstrom^3]:                                     27000.000000
 CELL_REF| Vector a [angstrom    30.000     0.000     0.000   |a| =    30.000000
 CELL_REF| Vector b [angstrom     0.000    30.000     0.000   |b| =    30.000000
 CELL_REF| Vector c [angstrom     0.000     0.000    30.000   |c| =    30.000000
 CELL_REF| Angle (b,c), alpha [degree]:                                90.000000
 CELL_REF| Angle (a,c), beta  [degree]:                                90.000000
 CELL_REF| Angle (a,b), gamma [degree]:                                90.000000
 CELL_REF| Numerically orthorhombic:                                         YES
 CELL_REF| Periodicity                                                      NONE

 *******************************************************************************
 *******************************************************************************
 **                                                                           **
 **     #####                         ##              ##                      **
 **    ##   ##            ##          ##              ##                      **
 **   ##     ##                       ##            ######                    **
 **   ##     ##  ##   ##  ##   #####  ##  ##   ####   ##    #####    #####    **
 **   ##     ##  ##   ##  ##  ##      ## ##   ##      ##   ##   ##  ##   ##   **
 **   ##  ## ##  ##   ##  ##  ##      ####     ###    ##   ######   ######    **
 **    ##  ###   ##   ##  ##  ##      ## ##      ##   ##   ##       ##        **
 **     #######   #####   ##   #####  ##  ##  ####    ##    #####   ##        **
 **           ##                                                    ##        **
 **                                                                           **
 **                                                ... make the atoms dance   **
 **                                                                           **
 **            Copyright (C) by CP2K developers group (2000-2025)             **
 **                      J. Chem. Phys. 152, 194103 (2020)                    **
 **                                                                           **
 *******************************************************************************

 DFT| Spin restricted Kohn-Sham (RKS) calculation                            RKS
 DFT| Multiplicity                                                             1
 DFT| Number of spin states                                                    1
 DFT| Charge                                                                   0
 DFT| Self-interaction correction (SIC)                                       NO
 DFT| Cutoffs: density                                              1.000000E-10
 DFT|          gradient                                             1.000000E-10
 DFT|          tau                                                  1.000000E-10
 DFT|          cutoff_smoothing_range                               0.000000E+00
 DFT| XC density smoothing                                                  NONE
 DFT| XC derivatives                                                          PW

 FUNCTIONAL| PBE:
 FUNCTIONAL| J.P.Perdew, K.Burke, M.Ernzerhof, Phys. Rev. Letter, vol. 77, n 18,
 FUNCTIONAL|  pp. 3865-3868, (1996)sx=0.750sc=1.000{spin unpolarized}           


 QS| Method:                                                                GAPW
 QS| Density plane wave grid type                        NON-SPHERICAL FULLSPACE
 QS| Number of grid levels:                                                    4
 QS| Density cutoff [a.u.]:                                                250.0
 QS| Multi grid cutoff [a.u.]: 1) grid level                               250.0
 QS|                           2) grid level                                83.3
 QS|                           3) grid level                                27.8
 QS|                           4) grid level                                 9.3
 QS| Grid level progression factor:                                          3.0
 QS| Relative density cutoff [a.u.]:                                        50.0
 QS| Interaction thresholds: eps_pgf_orb:                                1.0E-12
 QS|                         eps_filter_matrix:                          0.0E+00
 QS|                         eps_core_charge:                            1.0E-14
 QS|                         eps_rho_gspace:                             1.0E-12
 QS|                         eps_rho_rspace:                             1.0E-12
 QS|                         eps_gvg_rspace:                             1.0E-06
 QS|                         eps_ppl:                                    1.0E-02
 QS|                         eps_ppnl:                                   1.0E-08
 QS| GAPW|      One center basis from orbital basis primitives
 QS| GAPW|                   eps_fit:                                    1.0E-04
 QS| GAPW|                   eps_iso:                                    1.0E-12
 QS| GAPW|                   eps_svd:                                    1.0E-08
 QS| GAPW|                   eps_cpc:                                    1.0E-12
 QS| GAPW|   atom-r-grid: quadrature:                                     GC_LOG
 QS| GAPW|      atom-s-grid:  max l :                                          4
 QS| GAPW|      max_l_rho0 :                                                   2


 ATOMIC KIND INFORMATION

  1. Atomic kind: C                                     Number of atoms:       2

     Orbital Basis Set                                               aug-cc-pVDZ

       Number of orbital shell sets:                                           6
       Number of orbital shells:                                               9
       Number of primitive Cartesian functions:                               17
       Number of Cartesian basis functions:                                   25
       Number of spherical basis functions:                                   23
       Norm type:                                                              2

       Normalised Cartesian orbitals:

                        Set   Shell   Orbital            Exponent    Coefficient

                          1       1    1px               0.040410       0.025826
                          1       1    1py               0.040410       0.025826
                          1       1    1pz               0.040410       0.025826

                          2       1    1s                0.046900       0.071827

                          3       1    1dx2              0.151000       0.060203
                          3       1    1dxy              0.151000       0.104275
                          3       1    1dxz              0.151000       0.104275
                          3       1    1dy2              0.151000       0.060203
                          3       1    1dyz              0.151000       0.104275
                          3       1    1dz2              0.151000       0.060203

                          4       1    1px               9.439000       0.898722
                                                         2.002000       0.711071
                                                         0.545600       0.339917
                                                         0.151700       0.063270
                          4       1    1py               9.439000       0.898722
                                                         2.002000       0.711071
                                                         0.545600       0.339917
                                                         0.151700       0.063270
                          4       1    1pz               9.439000       0.898722
                                                         2.002000       0.711071
                                                         0.545600       0.339917
                                                         0.151700       0.063270

                          4       2    2px               9.439000       0.000000
                                                         2.002000       0.000000
                                                         0.545600       0.000000
                                                         0.151700       0.134950
                          4       2    2py               9.439000       0.000000
                                                         2.002000       0.000000
                                                         0.545600       0.000000
                                                         0.151700       0.134950
                          4       2    2pz               9.439000       0.000000
                                                         2.002000       0.000000
                                                         0.545600       0.000000
                                                         0.151700       0.134950

                          5       1    1s             6665.000000       0.363803
                                                      1000.000000       0.675392
                                                       228.000000       1.132301
                                                        64.710000       1.654004
                                                        21.060000       1.924978
                                                         7.495000       1.448149
                                                         2.797000       0.439427
                                                         0.521500       0.006650
                                                         0.159600      -0.000574

                          5       2    2s             6665.000000      -0.076756
                                                      1000.000000      -0.146257
                                                       228.000000      -0.239407
                                                        64.710000      -0.379069
                                                        21.060000      -0.448104
                                                         7.495000      -0.484201
                                                         2.797000      -0.196168
                                                         0.521500       0.238162
                                                         0.159600       0.104468

                          5       3    3s             6665.000000       0.000000
                                                      1000.000000       0.000000
                                                       228.000000       0.000000
                                                        64.710000       0.000000
                                                        21.060000       0.000000
                                                         7.495000       0.000000
                                                         2.797000       0.000000
                                                         0.521500       0.000000
                                                         0.159600       0.179964

                          6       1    1dx2              0.550000       0.578155
                          6       1    1dxy              0.550000       1.001394
                          6       1    1dxz              0.550000       1.001394
                          6       1    1dy2              0.550000       0.578155
                          6       1    1dyz              0.550000       1.001394
                          6       1    1dz2              0.550000       0.578155

     RI Auxiliary Basis Set                                    aug-cc-pVDZ-OPTRI

       Number of orbital shell sets:                                          17
       Number of orbital shells:                                              17
       Number of primitive Cartesian functions:                               17
       Number of Cartesian basis functions:                                   88
       Number of spherical basis functions:                                   69
       Norm type:                                                              2

       Normalised Cartesian orbitals:

                        Set   Shell   Orbital            Exponent    Coefficient

                          1       1    1s                0.073601       0.100710

                          2       1    1px               0.095295       0.075471
                          2       1    1py               0.095295       0.075471
                          2       1    1pz               0.095295       0.075471

                          3       1    1px               0.227892       0.224441
                          3       1    1py               0.227892       0.224441
                          3       1    1pz               0.227892       0.224441

                          4       1    1fx3              0.301896       0.099457
                          4       1    1fx2y             0.301896       0.222392
                          4       1    1fx2z             0.301896       0.222392
                          4       1    1fxy2             0.301896       0.222392
                          4       1    1fxyz             0.301896       0.385194
                          4       1    1fxz2             0.301896       0.222392
                          4       1    1fy3              0.301896       0.099457
                          4       1    1fy2z             0.301896       0.222392
                          4       1    1fyz2             0.301896       0.222392
                          4       1    1fz3              0.301896       0.099457

                          5       1    1dx2              0.333056       0.240334
                          5       1    1dxy              0.333056       0.416270
                          5       1    1dxz              0.333056       0.416270
                          5       1    1dy2              0.333056       0.240334
                          5       1    1dyz              0.333056       0.416270
                          5       1    1dz2              0.333056       0.240334

                          6       1    1px               0.481813       0.572187
                          6       1    1py               0.481813       0.572187
                          6       1    1pz               0.481813       0.572187

                          7       1    1s                0.499106       0.423209

                          8       1    1fx3              0.891821       1.137835
                          8       1    1fx2y             0.891821       2.544276
                          8       1    1fx2z             0.891821       2.544276
                          8       1    1fxy2             0.891821       2.544276
                          8       1    1fxyz             0.891821       4.406816
                          8       1    1fxz2             0.891821       2.544276
                          8       1    1fy3              0.891821       1.137835
                          8       1    1fy2z             0.891821       2.544276
                          8       1    1fyz2             0.891821       2.544276
                          8       1    1fz3              0.891821       1.137835

                          9       1    1gx4              0.973489       1.033584
                          9       1    1gx3y             0.973489       2.734606
                          9       1    1gx3z             0.973489       2.734606
                          9       1    1gx2y2            0.973489       3.530362
                          9       1    1gx2yz            0.973489       6.114766
                          9       1    1gx2z2            0.973489       3.530362
                          9       1    1gxy3             0.973489       2.734606
                          9       1    1gxy2z            0.973489       6.114766
                          9       1    1gxyz2            0.973489       6.114766
                          9       1    1gxz3             0.973489       2.734606
                          9       1    1gy4              0.973489       1.033584
                          9       1    1gy3z             0.973489       2.734606
                          9       1    1gy2z2            0.973489       3.530362
                          9       1    1gyz3             0.973489       2.734606
                          9       1    1gz4              0.973489       1.033584

                         10       1    1px               1.018656       1.458729
                         10       1    1py               1.018656       1.458729
                         10       1    1pz               1.018656       1.458729

                         11       1    1dx2              1.381969       2.899222
                         11       1    1dxy              1.381969       5.021600
                         11       1    1dxz              1.381969       5.021600
                         11       1    1dy2              1.381969       2.899222
                         11       1    1dyz              1.381969       5.021600
                         11       1    1dz2              1.381969       2.899222

                         12       1    1s                1.807741       1.111123

                         13       1    1px               2.153659       3.718872
                         13       1    1py               2.153659       3.718872
                         13       1    1pz               2.153659       3.718872

                         14       1    1fx3              2.652750      13.221209
                         14       1    1fx2y             2.652750      29.563522
                         14       1    1fx2z             2.652750      29.563522
                         14       1    1fxy2             2.652750      29.563522
                         14       1    1fxyz             2.652750      51.205523
                         14       1    1fxz2             2.652750      29.563522
                         14       1    1fy3              2.652750      13.221209
                         14       1    1fy2z             2.652750      29.563522
                         14       1    1fyz2             2.652750      29.563522
                         14       1    1fz3              2.652750      13.221209

                         15       1    1dx2              3.347320      13.634199
                         15       1    1dxy              3.347320      23.615125
                         15       1    1dxz              3.347320      23.615125
                         15       1    1dy2              3.347320      13.634199
                         15       1    1dyz              3.347320      23.615125
                         15       1    1dz2              3.347320      13.634199

                         16       1    1s                6.547563       2.917225

                         17       1    1dx2              8.107669      64.117632
                         17       1    1dxy              8.107669     111.054996
                         17       1    1dxz              8.107669     111.054996
                         17       1    1dy2              8.107669      64.117632
                         17       1    1dyz              8.107669     111.054996
                         17       1    1dz2              8.107669      64.117632

       Atomic covalent radius [Angstrom]:                                  0.770

       Atomic van der Waals radius [Angstrom]:                             1.700

     The atoms of this atomic kind are PAW atoms (GAPW):
       Hard Gaussian function radius:                                      1.512
       Rho0 radius:                                                        1.512
       Maximum GTO radius used for PAW projector construction:            24.566

     GAPW Soft Basis Set                                        aug-cc-pVDZ_soft

       Number of orbital shell sets:                                           6
       Number of orbital shells:                                               9
       Number of primitive Cartesian functions:                               10
       Number of Cartesian basis functions:                                   25
       Number of spherical basis functions:                                   23
       Norm type:                                                              2

       Normalised Cartesian orbitals:

                        Set   Shell   Orbital            Exponent    Coefficient

                          1       1    1px               0.040410       0.025826
                          1       1    1py               0.040410       0.025826
                          1       1    1pz               0.040410       0.025826

                          2       1    1s                0.046900       0.071827

                          3       1    1dx2              0.151000       0.060203
                          3       1    1dxy              0.151000       0.104275
                          3       1    1dxz              0.151000       0.104275
                          3       1    1dy2              0.151000       0.060203
                          3       1    1dyz              0.151000       0.104275
                          3       1    1dz2              0.151000       0.060203

                          4       1    1px               2.002000       0.711071
                                                         0.545600       0.339917
                                                         0.151700       0.063270
                          4       1    1py               2.002000       0.711071
                                                         0.545600       0.339917
                                                         0.151700       0.063270
                          4       1    1pz               2.002000       0.711071
                                                         0.545600       0.339917
                                                         0.151700       0.063270

                          4       2    2px               2.002000       0.000000
                                                         0.545600       0.000000
                                                         0.151700       0.134950
                          4       2    2py               2.002000       0.000000
                                                         0.545600       0.000000
                                                         0.151700       0.134950
                          4       2    2pz               2.002000       0.000000
                                                         0.545600       0.000000
                                                         0.151700       0.134950

                          5       1    1s                2.797000       0.439427
                                                         0.521500       0.006650
                                                         0.159600      -0.000574

                          5       2    2s                2.797000      -0.196168
                                                         0.521500       0.238162
                                                         0.159600       0.104468

                          5       3    3s                2.797000       0.000000
                                                         0.521500       0.000000
                                                         0.159600       0.179964

                          6       1    1dx2              0.550000       0.578155
                          6       1    1dxy              0.550000       1.001394
                          6       1    1dxz              0.550000       1.001394
                          6       1    1dy2              0.550000       0.578155
                          6       1    1dyz              0.550000       1.001394
                          6       1    1dz2              0.550000       0.578155

     AE Potential information for                                            ALL

       Description:                                       All-electron potential
                                          Krack, Parrinello, PCCP 2, 2105 (2000)

       Gaussian exponent of the core charge distribution:               4.109048
       Electronic configuration (s p d ...):                           4   2   0


 MOLECULE KIND INFORMATION


 All atoms are their own molecule, skipping detailed information


 TOTAL NUMBERS AND MAXIMUM NUMBERS

  Total number of            - Atomic kinds:                                   1
                             - Atoms:                                          2
                             - Shell sets:                                    12
                             - Shells:                                        18
                             - Primitive Cartesian functions:                 34
                             - Cartesian basis functions:                     50
                             - Spherical basis functions:                     46

  Maximum angular momentum of the orbital basis functions:                     2


 MODULE QUICKSTEP: ATOMIC COORDINATES IN ANGSTROM

   Atom Kind Element         X             Y             Z       Z(eff)     Mass
      1    1 C     6     15.620000     15.000000     15.000000   6.0000  12.0107
      2    1 C     6     14.380000     15.000000     15.000000   6.0000  12.0107



 SCF PARAMETERS         Density guess:                                    ATOMIC
                        --------------------------------------------------------
                        max_scf:                                             500
                        max_scf_history:                                       0
                        max_diis:                                              4
                        --------------------------------------------------------
                        eps_scf:                                        1.00E-06
                        eps_scf_history:                                0.00E+00
                        eps_diis:                                       1.00E-01
                        eps_eigval:                                     1.00E-05
                        --------------------------------------------------------
                        level_shift [a.u.]:                             0.000000
                        added MOs                                        40    0
                        --------------------------------------------------------
                        Mixing method:                            BROYDEN_MIXING
                                                charge density mixing in g-space
                        --------------------------------------------------------
                        No outer SCF

 PW_GRID| Information for grid number                                          1
 PW_GRID| Grid distributed over                                    24 processors
 PW_GRID| Real space group dimensions                                    24    1
 PW_GRID| the grid is blocked:                                                NO
 PW_GRID| Cutoff [a.u.]                                                    250.0
 PW_GRID| spherical cutoff:                                                   NO
 PW_GRID|   Bounds   1           -202     202                Points:         405
 PW_GRID|   Bounds   2           -202     202                Points:         405
 PW_GRID|   Bounds   3           -202     202                Points:         405
 PW_GRID| Volume element (a.u.^3)  0.2743E-02     Volume (a.u.^3)    182205.0337
 PW_GRID| Grid span                                                    FULLSPACE
 PW_GRID|   Distribution                         Average         Max         Min
 PW_GRID|   G-Vectors                          2767921.9     2768175     2767770
 PW_GRID|   G-Rays                                6834.4        6835        6834
 PW_GRID|   Real Space Points                  2767921.9     2788425     2624400

 PW_GRID| Information for grid number                                          2
 PW_GRID| Number of the reference grid                                         1
 PW_GRID| Grid distributed over                                    24 processors
 PW_GRID| Real space group dimensions                                    24    1
 PW_GRID| the grid is blocked:                                                NO
 PW_GRID| Cutoff [a.u.]                                                     83.3
 PW_GRID| spherical cutoff:                                                   NO
 PW_GRID|   Bounds   1           -120     119                Points:         240
 PW_GRID|   Bounds   2           -120     119                Points:         240
 PW_GRID|   Bounds   3           -120     119                Points:         240
 PW_GRID| Volume element (a.u.^3)  0.1318E-01     Volume (a.u.^3)    182205.0337
 PW_GRID| Grid span                                                    FULLSPACE
 PW_GRID|   Distribution                         Average         Max         Min
 PW_GRID|   G-Vectors                           576000.0      576240      575760
 PW_GRID|   G-Rays                                2400.0        2401        2399
 PW_GRID|   Real Space Points                   576000.0      576000      576000

 PW_GRID| Information for grid number                                          3
 PW_GRID| Number of the reference grid                                         1
 PW_GRID| Grid distributed over                                    24 processors
 PW_GRID| Real space group dimensions                                    24    1
 PW_GRID| the grid is blocked:                                                NO
 PW_GRID| Cutoff [a.u.]                                                     27.8
 PW_GRID| spherical cutoff:                                                   NO
 PW_GRID|   Bounds   1            -67      67                Points:         135
 PW_GRID|   Bounds   2            -67      67                Points:         135
 PW_GRID|   Bounds   3            -67      67                Points:         135
 PW_GRID| Volume element (a.u.^3)  0.7406E-01     Volume (a.u.^3)    182205.0337
 PW_GRID| Grid span                                                    FULLSPACE
 PW_GRID|   Distribution                         Average         Max         Min
 PW_GRID|   G-Vectors                           102515.6      102735      102330
 PW_GRID|   G-Rays                                 759.4         761         758
 PW_GRID|   Real Space Points                   102515.6      109350       91125

 PW_GRID| Information for grid number                                          4
 PW_GRID| Number of the reference grid                                         1
 PW_GRID| Grid distributed over                                    24 processors
 PW_GRID| Real space group dimensions                                    24    1
 PW_GRID| the grid is blocked:                                                NO
 PW_GRID| Cutoff [a.u.]                                                      9.3
 PW_GRID| spherical cutoff:                                                   NO
 PW_GRID|   Bounds   1            -40      39                Points:          80
 PW_GRID|   Bounds   2            -40      39                Points:          80
 PW_GRID|   Bounds   3            -40      39                Points:          80
 PW_GRID| Volume element (a.u.^3)  0.3559         Volume (a.u.^3)    182205.0337
 PW_GRID| Grid span                                                    FULLSPACE
 PW_GRID|   Distribution                         Average         Max         Min
 PW_GRID|   G-Vectors                            21333.3       21360       21280
 PW_GRID|   G-Rays                                 266.7         267         266
 PW_GRID|   Real Space Points                    21333.3       25600       19200

 POISSON| Solver                                                         WAVELET
 POISSON| Wavelet| Scaling function                                           40
 POISSON| Periodicity                                                       NONE

 RS_GRID| Information for grid number                                          1
 RS_GRID|   Bounds   1           -202     202                Points:         405
 RS_GRID|   Bounds   2           -202     202                Points:         405
 RS_GRID|   Bounds   3           -202     202                Points:         405
 RS_GRID| Real space distribution over                                  2 groups
 RS_GRID| Real space distribution along direction                              1
 RS_GRID| Border size                                                         30
 RS_GRID| Real space distribution over                                  3 groups
 RS_GRID| Real space distribution along direction                              2
 RS_GRID| Border size                                                         30
 RS_GRID| Real space distribution over                                  4 groups
 RS_GRID| Real space distribution along direction                              3
 RS_GRID| Border size                                                         30
 RS_GRID|   Distribution                         Average         Max         Min
 RS_GRID|   Planes                                 262.5         263         262
 RS_GRID|   Distribution                         Average         Max         Min
 RS_GRID|   Planes                                 195.0         195         195
 RS_GRID|   Distribution                         Average         Max         Min
 RS_GRID|   Planes                                 161.2         162         161

 RS_GRID| Information for grid number                                          2
 RS_GRID|   Bounds   1           -120     119                Points:         240
 RS_GRID|   Bounds   2           -120     119                Points:         240
 RS_GRID|   Bounds   3           -120     119                Points:         240
 RS_GRID| Real space distribution over                                  2 groups
 RS_GRID| Real space distribution along direction                              1
 RS_GRID| Border size                                                         35
 RS_GRID| Real space distribution over                                  3 groups
 RS_GRID| Real space distribution along direction                              2
 RS_GRID| Border size                                                         35
 RS_GRID| Real space distribution over                                  4 groups
 RS_GRID| Real space distribution along direction                              3
 RS_GRID| Border size                                                         35
 RS_GRID|   Distribution                         Average         Max         Min
 RS_GRID|   Planes                                 190.0         190         190
 RS_GRID|   Distribution                         Average         Max         Min
 RS_GRID|   Planes                                 150.0         150         150
 RS_GRID|   Distribution                         Average         Max         Min
 RS_GRID|   Planes                                 130.0         130         130

 RS_GRID| Information for grid number                                          3
 RS_GRID|   Bounds   1            -67      67                Points:         135
 RS_GRID|   Bounds   2            -67      67                Points:         135
 RS_GRID|   Bounds   3            -67      67                Points:         135
 RS_GRID| Real space fully replicated
 RS_GRID| Group size                                                           1

 RS_GRID| Information for grid number                                          4
 RS_GRID|   Bounds   1            -40      39                Points:          80
 RS_GRID|   Bounds   2            -40      39                Points:          80
 RS_GRID|   Bounds   3            -40      39                Points:          80
 RS_GRID| Real space fully replicated
 RS_GRID| Group size                                                           1

  HFX_INFO| Replica ID:                                                        1
  HFX_INFO| FRACTION:                                               0.2500000000
  HFX_INFO| Interaction Potential:                                       COULOMB
  HFX_INFO| EPS_SCHWARZ:                                                 1.0E-10
  HFX_INFO| EPS_SCHWARZ_FORCES                                           1.0E-08
  HFX_INFO| EPS_STORAGE_SCALING:                                         1.0E+00
  HFX_INFO| NBINS:                                                            64
  HFX_INFO| BLOCK_SIZE:                                                        1
  HFX_INFO| Number of periodic shells considered:                           NONE
  HFX_INFO| Number of periodic cells considered:                            NONE

 
 RI-RPA| using GPW style
 

 OVERLAP MATRIX CONDITION NUMBER
 1-Norm Condition Number (Estimate)
   CN : |A|*|A^-1|:  6.969E+000 *  8.147E+003   = 5.677E+004  Log(1-CN):  4.7541
 1-Norm and 2-Norm Condition Numbers using Diagonalization
   CN : |A|*|A^-1|:  6.969E+000 *  8.147E+003   = 5.677E+004  Log(1-CN):  4.7541
   CN : max/min ev:  4.979E+000 /  1.722E-004   = 2.892E+004  Log(2-CN):  4.4612

 Number of electrons:                                                         12
 Number of occupied orbitals:                                                  6
 Number of molecular orbitals:                                                46

 Number of orbital functions:                                                 46
 Number of independent orbital functions:                                     46

 Extrapolation method: initial_guess

 Atomic guess: The first density matrix is obtained in terms of atomic orbitals
               and electronic configurations assigned to each atomic kind

 Guess for atomic kind: C

 Electronic structure
    Total number of core electrons                                          0.00
    Total number of valence electrons                                       6.00
    Total number of electrons                                               6.00
    Multiplicity                                                   not specified
    S      2.00  2.00
    P      2.00


 *******************************************************************************
                  Iteration          Convergence                     Energy [au]
 *******************************************************************************
                          1        0.121977                     -37.400018089324
                          2        0.904329E-01                 -37.406032348656
                          3        0.638681E-03                 -37.414959418976
                          4        0.141121E-03                 -37.414959795862
                          5        0.446247E-06                 -37.414959815731

 Energy components [Hartree]           Total Energy ::          -37.414959815731
                                        Band Energy ::          -21.286259476185
                                     Kinetic Energy ::           37.482739917864
                                   Potential Energy ::          -74.897699733595
                                      Virial (-V/T) ::            1.998191698305
                                        Core Energy ::          -50.304318516063
                                          XC Energy ::           -4.741579470163
                                     Coulomb Energy ::           17.630938170495

 Orbital energies  State     L     Occupation   Energy[a.u.]          Energy[eV]

                       1     0          2.000      -9.942952         -270.561481
                       2     0          2.000      -0.501864          -13.656426

                       1     1          2.000      -0.198313           -5.396382


 Total Electron Density at R=0:                                       121.940282
 Re-scaling the density matrix to get the right number of electrons
                  # Electrons              Trace(P)               Scaling factor
                           12                12.000                        1.000


 SCF WAVEFUNCTION OPTIMIZATION

  Step     Update method      Time    Convergence         Total energy    Change
  ------------------------------------------------------------------------------

  HFX_MEM_INFO| Est. max. program size before HFX [MiB]:                    2080
  HFX_MEM_INFO| Number of cart. primitive ERI's calculated:             10845273
  HFX_MEM_INFO| Number of sph. ERI's calculated:                         1679046
  HFX_MEM_INFO| Number of sph. ERI's stored in-core:                     1679046
  HFX_MEM_INFO| Number of sph. ERI's stored on disk:                           0
  HFX_MEM_INFO| Number of sph. ERI's calculated on the fly:                    0
  HFX_MEM_INFO| Total memory consumption ERI's RAM [MiB]:                      7
  HFX_MEM_INFO| Whereof max-vals [MiB]:                                        1
  HFX_MEM_INFO| Total compression factor ERI's RAM:                         2.04
  HFX_MEM_INFO| Total memory consumption ERI's disk [MiB]:                     0
  HFX_MEM_INFO| Total compression factor ERI's disk:                        0.00
  HFX_MEM_INFO| Size of density/Fock matrix [MiB]:                             0
  HFX_MEM_INFO| Size of buffers [MiB]:                                         0
  HFX_MEM_INFO| Est. max. program size after HFX  [MiB]:                    2586

     1 NoMix/Diag. 0.10E+00    6.5     0.93468911       -76.0141402994 -7.60E+01
     2 Broy./Diag. 0.10E+00    4.8     0.04680797       -75.2609848542  7.53E-01
     3 Broy./Diag. 0.10E+00    5.1     0.04092759       -75.0181694874  2.43E-01
     4 Broy./Diag. 0.10E+00    4.9     0.11917408       -75.2096746038 -1.92E-01
     5 Broy./Diag. 0.10E+00    5.1     0.02886758       -75.6304055183 -4.21E-01
     6 Broy./Diag. 0.10E+00    5.0     0.00647700       -75.7136957849 -8.33E-02
     7 Broy./Diag. 0.10E+00    5.2     0.00946398       -75.7350078127 -2.13E-02
     8 Broy./Diag. 0.10E+00    5.3     0.00105295       -75.7472649709 -1.23E-02
     9 Broy./Diag. 0.10E+00    5.2     0.00775968       -75.7377299489  9.54E-03
    10 Broy./Diag. 0.10E+00    5.3     0.00365996       -75.7504950588 -1.28E-02
    11 Broy./Diag. 0.10E+00    5.4     0.00451876       -75.7659712502 -1.55E-02
    12 Broy./Diag. 0.10E+00    5.3     0.01803589       -75.7796622071 -1.37E-02
    13 Broy./Diag. 0.10E+00    5.3     0.00170012       -75.7893158840 -9.65E-03
    14 Broy./Diag. 0.10E+00    5.3     0.01380051       -75.7818835220  7.43E-03
    15 Broy./Diag. 0.10E+00    5.3     0.00348840       -75.7753267207  6.56E-03
    16 Broy./Diag. 0.10E+00    5.6     0.00034342       -75.7783381073 -3.01E-03
    17 Broy./Diag. 0.10E+00    5.5     0.00690820       -75.7807500977 -2.41E-03
    18 Broy./Diag. 0.10E+00    5.5     0.00531538       -75.7856332915 -4.88E-03
    19 Broy./Diag. 0.10E+00    5.4     0.00066379       -75.7896289340 -4.00E-03
    20 Broy./Diag. 0.10E+00    5.4     0.00052028       -75.7895291000  9.98E-05
    21 Broy./Diag. 0.10E+00    5.3     0.00275422       -75.7890909621  4.38E-04
    22 Broy./Diag. 0.10E+00    5.4     0.00376850       -75.7882614784  8.29E-04
    23 Broy./Diag. 0.10E+00    5.5     0.00130595       -75.7898011931 -1.54E-03
    24 Broy./Diag. 0.10E+00    5.5     0.00559025       -75.7871970021  2.60E-03
    25 Broy./Diag. 0.10E+00    5.3     0.00520579       -75.7841148361  3.08E-03
    26 Broy./Diag. 0.10E+00    5.4     0.00143988       -75.7850547920 -9.40E-04
    27 Broy./Diag. 0.10E+00    5.4     0.00055337       -75.7859339523 -8.79E-04
    28 Broy./Diag. 0.10E+00    5.4     0.00050547       -75.7863205802 -3.87E-04
    29 Broy./Diag. 0.10E+00    5.5     0.00041503       -75.7868843213 -5.64E-04
    30 Broy./Diag. 0.10E+00    5.6     0.00055699       -75.7872359275 -3.52E-04
    31 Broy./Diag. 0.10E+00    5.5     0.00080729       -75.7872074414  2.85E-05
    32 Broy./Diag. 0.10E+00    5.4     0.00061887       -75.7871466387  6.08E-05
    33 Broy./Diag. 0.10E+00    5.4     0.00025422       -75.7870002583  1.46E-04
    34 Broy./Diag. 0.10E+00    5.4     0.00048380       -75.7869198570  8.04E-05
    35 Broy./Diag. 0.10E+00    5.5     0.00026994       -75.7869184482  1.41E-06
    36 Broy./Diag. 0.10E+00    5.5     0.00021301       -75.7868104716  1.08E-04
    37 Broy./Diag. 0.10E+00    5.7     0.00040080       -75.7868168369 -6.37E-06
    38 Broy./Diag. 0.10E+00    5.3     0.00030956       -75.7869449845 -1.28E-04
    39 Broy./Diag. 0.10E+00    5.4     0.00079065       -75.7868778531  6.71E-05
    40 Broy./Diag. 0.10E+00    5.3     0.00086789       -75.7868498004  2.81E-05
    41 Broy./Diag. 0.10E+00    5.5     0.00100026       -75.7868927830 -4.30E-05
    42 Broy./Diag. 0.10E+00    5.4     0.00107941       -75.7868199686  7.28E-05
    43 Broy./Diag. 0.10E+00    5.5     0.00108207       -75.7866532764  1.67E-04
    44 Broy./Diag. 0.10E+00    5.5     0.00051030       -75.7866078270  4.54E-05
    45 Broy./Diag. 0.10E+00    5.4     0.00079101       -75.7865451498  6.27E-05
    46 Broy./Diag. 0.10E+00    5.3     0.00084216       -75.7864602675  8.49E-05
    47 Broy./Diag. 0.10E+00    5.3     0.00076929       -75.7864570297  3.24E-06
    48 Broy./Diag. 0.10E+00    5.4     0.00078819       -75.7864352530  2.18E-05
    49 Broy./Diag. 0.10E+00    5.4     0.00070287       -75.7864407096 -5.46E-06
    50 Broy./Diag. 0.10E+00    5.5     0.00074311       -75.7864410016 -2.92E-07
    51 Broy./Diag. 0.10E+00    5.5     0.00072309       -75.7864309469  1.01E-05
    52 Broy./Diag. 0.10E+00    5.4     0.00071832       -75.7864380586 -7.11E-06
    53 Broy./Diag. 0.10E+00    5.4     0.00043566       -75.7864693929 -3.13E-05
    54 Broy./Diag. 0.10E+00    5.4     0.00059720       -75.7864674471  1.95E-06
    55 Broy./Diag. 0.10E+00    5.4     0.00067401       -75.7864209820  4.65E-05
    56 Broy./Diag. 0.10E+00    5.4     0.00059140       -75.7864288334 -7.85E-06
    57 Broy./Diag. 0.10E+00    5.6     0.00053669       -75.7863917282  3.71E-05
    58 Broy./Diag. 0.10E+00    5.4     0.00024945       -75.7864127912 -2.11E-05
    59 Broy./Diag. 0.10E+00    5.6     0.00028253       -75.7865322112 -1.19E-04
    60 Broy./Diag. 0.10E+00    5.4     0.00037463       -75.7866554244 -1.23E-04
    61 Broy./Diag. 0.10E+00    5.3     0.00061765       -75.7868294540 -1.74E-04
    62 Broy./Diag. 0.10E+00    5.4     0.00094900       -75.7869654424 -1.36E-04
    63 Broy./Diag. 0.10E+00    5.3     0.00115183       -75.7869992037 -3.38E-05
    64 Broy./Diag. 0.10E+00    5.4     0.00137754       -75.7868938182  1.05E-04
    65 Broy./Diag. 0.10E+00    5.4     0.00187477       -75.7870387563 -1.45E-04
    66 Broy./Diag. 0.10E+00    5.4     0.00256178       -75.7867253693  3.13E-04
    67 Broy./Diag. 0.10E+00    5.4     0.00712238       -75.7867897897 -6.44E-05
    68 Broy./Diag. 0.10E+00    5.5     0.00628833       -75.7868843833 -9.46E-05
    69 Broy./Diag. 0.10E+00    5.5     0.00639363       -75.7866831608  2.01E-04
    70 Broy./Diag. 0.10E+00    5.4     0.00871712       -75.7867891352 -1.06E-04
    71 Broy./Diag. 0.10E+00    5.5     0.01188038       -75.7866742838  1.15E-04
    72 Broy./Diag. 0.10E+00    5.5     0.01611387       -75.7861966709  4.78E-04
    73 Broy./Diag. 0.10E+00    5.4     0.02189454       -75.7848246802  1.37E-03
    74 Broy./Diag. 0.10E+00    5.4     0.02907520       -75.7830297180  1.79E-03
    75 Broy./Diag. 0.10E+00    5.4     0.03757355       -75.7785010063  4.53E-03
    76 Broy./Diag. 0.10E+00    5.3     0.04648240       -75.7707179311  7.78E-03
    77 Broy./Diag. 0.10E+00    5.3     0.06237644       -75.7581940416  1.25E-02
    78 Broy./Diag. 0.10E+00    5.3     0.09739738       -75.7382681314  1.99E-02
    79 Broy./Diag. 0.10E+00    5.3     0.12892865       -75.7089434950  2.93E-02
    80 Broy./Diag. 0.10E+00    5.3     0.15134494       -75.6688120638  4.01E-02
    81 Broy./Diag. 0.10E+00    5.3     0.15003059       -75.6227242144  4.61E-02
    82 Broy./Diag. 0.10E+00    5.3     0.13077475       -75.5748854261  4.78E-02
    83 Broy./Diag. 0.10E+00    5.4     0.10080253       -75.5368062049  3.81E-02
    84 Broy./Diag. 0.10E+00    5.5     0.07074384       -75.5026515839  3.42E-02
    85 Broy./Diag. 0.10E+00    5.6     0.04866875       -75.4803220131  2.23E-02
    86 Broy./Diag. 0.10E+00    5.4     0.03823529       -75.4686318783  1.17E-02
    87 Broy./Diag. 0.10E+00    5.5     0.03325117       -75.4641795433  4.45E-03
    88 Broy./Diag. 0.10E+00    5.5     0.02865600       -75.4627618236  1.42E-03
    89 Broy./Diag. 0.10E+00    5.4     0.02413656       -75.4603495572  2.41E-03
    90 Broy./Diag. 0.10E+00    5.5     0.04086824       -75.4716246540 -1.13E-02
    91 Broy./Diag. 0.10E+00    5.3     0.04336393       -75.4957494314 -2.41E-02
    92 Broy./Diag. 0.10E+00    5.3     0.08571287       -75.5084847605 -1.27E-02
    93 Broy./Diag. 0.10E+00    5.3     0.04436642       -75.5649303237 -5.64E-02
    94 Broy./Diag. 0.10E+00    5.4     0.06228023       -75.6366389914 -7.17E-02
    95 Broy./Diag. 0.10E+00    5.5     0.11405960       -75.5708734707  6.58E-02
    96 Broy./Diag. 0.10E+00    5.5     0.15586602       -75.6274913966 -5.66E-02
    97 Broy./Diag. 0.10E+00    5.4     0.10628287       -75.7094207380 -8.19E-02
    98 Broy./Diag. 0.10E+00    5.4     0.09674183       -75.5558887368  1.54E-01
    99 Broy./Diag. 0.10E+00    5.4     0.12748905       -75.5591794566 -3.29E-03
   100 Broy./Diag. 0.10E+00    5.3     0.04116831       -75.5233510979  3.58E-02
   101 Broy./Diag. 0.10E+00    5.3     0.03081718       -75.5716414230 -4.83E-02
   102 Broy./Diag. 0.10E+00    5.4     0.09208433       -75.6366956044 -6.51E-02
   103 Broy./Diag. 0.10E+00    5.5     0.19827675       -75.5026443037  1.34E-01
   104 Broy./Diag. 0.10E+00    5.5     0.12309275       -75.5601012813 -5.75E-02
   105 Broy./Diag. 0.10E+00    5.5     0.10175683       -75.7084749557 -1.48E-01
   106 Broy./Diag. 0.10E+00    5.4     0.03788087       -75.7324136973 -2.39E-02
   107 Broy./Diag. 0.10E+00    5.5     0.06342406       -75.7273087840  5.10E-03
   108 Broy./Diag. 0.10E+00    5.5     0.04009733       -75.7685485312 -4.12E-02
   109 Broy./Diag. 0.10E+00    5.5     0.12878647       -75.7476099668  2.09E-02
   110 Broy./Diag. 0.10E+00    5.4     0.17413596       -75.6672812207  8.03E-02
   111 Broy./Diag. 0.10E+00    5.5     0.28153020       -75.7314437053 -6.42E-02
   112 Broy./Diag. 0.10E+00    5.4     0.09844846       -75.6951535672  3.63E-02
   113 Broy./Diag. 0.10E+00    5.4     0.07666494       -75.7443769548 -4.92E-02
   114 Broy./Diag. 0.10E+00    5.5     0.13046376       -75.7833510166 -3.90E-02
   115 Broy./Diag. 0.10E+00    5.3     0.11978674       -75.7883047016 -4.95E-03
   116 Broy./Diag. 0.10E+00    5.3     0.08913426       -75.8103446727 -2.20E-02
   117 Broy./Diag. 0.10E+00    5.6     0.06736890       -75.8387745990 -2.84E-02
   118 Broy./Diag. 0.10E+00    5.6     0.07208928       -75.8552580091 -1.65E-02
   119 Broy./Diag. 0.10E+00    5.5     0.06833435       -75.8481992763  7.06E-03
   120 Broy./Diag. 0.10E+00    5.6     0.08577226       -75.8365939890  1.16E-02
   121 Broy./Diag. 0.10E+00    5.5     0.07516763       -75.8327021097  3.89E-03
   122 Broy./Diag. 0.10E+00    5.5     0.03921125       -75.8347044375 -2.00E-03
   123 Broy./Diag. 0.10E+00    5.5     0.01537595       -75.8186746351  1.60E-02
   124 Broy./Diag. 0.10E+00    5.4     0.01314184       -75.8083935469  1.03E-02
   125 Broy./Diag. 0.10E+00    5.4     0.02180420       -75.8170849033 -8.69E-03
   126 Broy./Diag. 0.10E+00    5.5     0.02813785       -75.7855965264  3.15E-02
   127 Broy./Diag. 0.10E+00    5.3     0.05350001       -75.7992840053 -1.37E-02
   128 Broy./Diag. 0.10E+00    5.4     0.03946579       -75.7827401958  1.65E-02
   129 Broy./Diag. 0.10E+00    5.3     0.07035664       -75.7988013226 -1.61E-02
   130 Broy./Diag. 0.10E+00    5.3     0.07161049       -75.8446656918 -4.59E-02
   131 Broy./Diag. 0.10E+00    5.4     0.04026038       -75.8789594851 -3.43E-02
   132 Broy./Diag. 0.10E+00    5.5     0.04529974       -75.8883259980 -9.37E-03
   133 Broy./Diag. 0.10E+00    5.4     0.03483329       -75.9131312939 -2.48E-02
   134 Broy./Diag. 0.10E+00    5.5     0.03942148       -75.9051096068  8.02E-03
   135 Broy./Diag. 0.10E+00    5.4     0.02245941       -75.8824761251  2.26E-02
   136 Broy./Diag. 0.10E+00    5.5     0.03321105       -75.8827026417 -2.27E-04
   137 Broy./Diag. 0.10E+00    5.4     0.01902333       -75.8760137411  6.69E-03
   138 Broy./Diag. 0.10E+00    5.4     0.02350364       -75.8630862948  1.29E-02
   139 Broy./Diag. 0.10E+00    5.5     0.02443322       -75.8507170903  1.24E-02
   140 Broy./Diag. 0.10E+00    5.5     0.01997349       -75.8458752852  4.84E-03
   141 Broy./Diag. 0.10E+00    5.4     0.02805258       -75.8395322456  6.34E-03
   142 Broy./Diag. 0.10E+00    5.3     0.04050480       -75.8268752309  1.27E-02
   143 Broy./Diag. 0.10E+00    5.3     0.03430043       -75.8350976058 -8.22E-03
   144 Broy./Diag. 0.10E+00    5.3     0.03901357       -75.8346749639  4.23E-04
   145 Broy./Diag. 0.10E+00    5.3     0.06798137       -75.8173547159  1.73E-02
   146 Broy./Diag. 0.10E+00    5.5     0.10056039       -75.7948685835  2.25E-02
   147 Broy./Diag. 0.10E+00    5.6     0.14267605       -75.7759356532  1.89E-02
   148 Broy./Diag. 0.10E+00    5.6     0.16870757       -75.7221514620  5.38E-02
   149 Broy./Diag. 0.10E+00    5.5     0.15469455       -75.6610335413  6.11E-02
   150 Broy./Diag. 0.10E+00    5.5     0.13330105       -75.6179654660  4.31E-02
   151 Broy./Diag. 0.10E+00    5.4     0.10804507       -75.6001702773  1.78E-02
   152 Broy./Diag. 0.10E+00    5.4     0.07876505       -75.5721577180  2.80E-02
   153 Broy./Diag. 0.10E+00    5.4     0.07477198       -75.5510007915  2.12E-02
   154 Broy./Diag. 0.10E+00    5.5     0.07123852       -75.5295159710  2.15E-02
   155 Broy./Diag. 0.10E+00    5.4     0.10162185       -75.5490871811 -1.96E-02
   156 Broy./Diag. 0.10E+00    5.4     0.07863359       -75.5622145130 -1.31E-02
   157 Broy./Diag. 0.10E+00    5.3     0.03998161       -75.5475439503  1.47E-02
   158 Broy./Diag. 0.10E+00    5.3     0.06557339       -75.5399829103  7.56E-03
   159 Broy./Diag. 0.10E+00    5.3     0.02193312       -75.5485520324 -8.57E-03
   160 Broy./Diag. 0.10E+00    5.3     0.02327605       -75.5688620550 -2.03E-02
   161 Broy./Diag. 0.10E+00    5.4     0.12381145       -75.6278567806 -5.90E-02
   162 Broy./Diag. 0.10E+00    5.6     0.07474059       -75.5912198144  3.66E-02
   163 Broy./Diag. 0.10E+00    5.4     0.29912187       -75.6071190038 -1.59E-02
   164 Broy./Diag. 0.10E+00    5.5     0.23581264       -75.5091684348  9.80E-02
   165 Broy./Diag. 0.10E+00    5.5     0.29278860       -75.4493162523  5.99E-02
   166 Broy./Diag. 0.10E+00    5.5     0.24269555       -75.6521824027 -2.03E-01
   167 Broy./Diag. 0.10E+00    5.4     0.16446867       -75.5956895563  5.65E-02
   168 Broy./Diag. 0.10E+00    5.4     0.18272081       -75.5359293019  5.98E-02
   169 Broy./Diag. 0.10E+00    5.4     0.09803565       -75.5559923124 -2.01E-02
   170 Broy./Diag. 0.10E+00    5.3     0.06594569       -75.5685869504 -1.26E-02
   171 Broy./Diag. 0.10E+00    5.3     0.02583056       -75.5389790440  2.96E-02
   172 Broy./Diag. 0.10E+00    5.3     0.03527580       -75.5482115650 -9.23E-03
   173 Broy./Diag. 0.10E+00    5.3     0.06948894       -75.5547653569 -6.55E-03
   174 Broy./Diag. 0.10E+00    5.4     0.07948075       -75.4866276200  6.81E-02
   175 Broy./Diag. 0.10E+00    5.3     0.15361627       -75.4607135179  2.59E-02
   176 Broy./Diag. 0.10E+00    5.3     0.28595421       -75.5055701602 -4.49E-02
   177 Broy./Diag. 0.10E+00    5.4     0.30775740       -75.5526458496 -4.71E-02
   178 Broy./Diag. 0.10E+00    5.4     0.26864855       -75.6453919855 -9.27E-02
   179 Broy./Diag. 0.10E+00    5.5     0.20442673       -75.8219009028 -1.77E-01
   180 Broy./Diag. 0.10E+00    5.5     0.17367244       -75.8385384715 -1.66E-02
   181 Broy./Diag. 0.10E+00    5.5     0.12629006       -75.8386301730 -9.17E-05
   182 Broy./Diag. 0.10E+00    5.4     0.07778247       -75.8040656937  3.46E-02
   183 Broy./Diag. 0.10E+00    5.4     0.04391271       -75.7751233042  2.89E-02
   184 Broy./Diag. 0.10E+00    5.4     0.02964125       -75.7691003814  6.02E-03
   185 Broy./Diag. 0.10E+00    5.4     0.02095728       -75.7797973122 -1.07E-02
   186 Broy./Diag. 0.10E+00    5.3     0.05322567       -75.7907414211 -1.09E-02
   187 Broy./Diag. 0.10E+00    5.3     0.05298021       -75.7657283551  2.50E-02
   188 Broy./Diag. 0.10E+00    5.3     0.09121932       -75.7647031715  1.03E-03
   189 Broy./Diag. 0.10E+00    5.3     0.03210463       -75.7709158117 -6.21E-03
   190 Broy./Diag. 0.10E+00    5.4     0.05370984       -75.8225688300 -5.17E-02
   191 Broy./Diag. 0.10E+00    5.3     0.13080973       -75.7498728917  7.27E-02
   192 Broy./Diag. 0.10E+00    5.4     0.21440563       -75.8173104980 -6.74E-02
   193 Broy./Diag. 0.10E+00    5.3     0.09384726       -75.8458209073 -2.85E-02
   194 Broy./Diag. 0.10E+00    5.5     0.05090716       -75.8539768993 -8.16E-03
   195 Broy./Diag. 0.10E+00    5.4     0.05527169       -75.8425468054  1.14E-02
   196 Broy./Diag. 0.10E+00    5.5     0.08811518       -75.8344290982  8.12E-03
   197 Broy./Diag. 0.10E+00    5.6     0.07593499       -75.8292629822  5.17E-03
   198 Broy./Diag. 0.10E+00    5.5     0.06919203       -75.8073962558  2.19E-02
   199 Broy./Diag. 0.10E+00    5.5     0.07349750       -75.7971569562  1.02E-02
   200 Broy./Diag. 0.10E+00    5.5     0.06757284       -75.7918669100  5.29E-03
   201 Broy./Diag. 0.10E+00    5.4     0.08708174       -75.7903186572  1.55E-03
   202 Broy./Diag. 0.10E+00    5.4     0.12307212       -75.7302127084  6.01E-02
   203 Broy./Diag. 0.10E+00    5.3     0.24784694       -75.7913704983 -6.12E-02
   204 Broy./Diag. 0.10E+00    5.3     0.11944332       -75.8322383665 -4.09E-02
   205 Broy./Diag. 0.10E+00    5.3     0.10748463       -75.8272457214  4.99E-03
   206 Broy./Diag. 0.10E+00    5.3     0.11058672       -75.8171753516  1.01E-02
   207 Broy./Diag. 0.10E+00    5.3     0.09221621       -75.7963968266  2.08E-02
   208 Broy./Diag. 0.10E+00    5.3     0.11287719       -75.7773480244  1.90E-02
   209 Broy./Diag. 0.10E+00    5.3     0.11685669       -75.7722736975  5.07E-03
   210 Broy./Diag. 0.10E+00    5.4     0.07775498       -75.7731633401 -8.90E-04
   211 Broy./Diag. 0.10E+00    5.5     0.04839535       -75.7493750344  2.38E-02
   212 Broy./Diag. 0.10E+00    5.5     0.03192938       -75.7186388108  3.07E-02
   213 Broy./Diag. 0.10E+00    5.5     0.08963551       -75.7099770072  8.66E-03
   214 Broy./Diag. 0.10E+00    5.5     0.12313813       -75.7572048544 -4.72E-02
   215 Broy./Diag. 0.10E+00    5.5     0.12010714       -75.8080181265 -5.08E-02
   216 Broy./Diag. 0.10E+00    5.4     0.16675784       -75.8336450399 -2.56E-02
   217 Broy./Diag. 0.10E+00    5.4     0.14800743       -75.8369803537 -3.34E-03
   218 Broy./Diag. 0.10E+00    5.4     0.03442762       -75.8306221167  6.36E-03
   219 Broy./Diag. 0.10E+00    5.4     0.02135455       -75.8196393882  1.10E-02
   220 Broy./Diag. 0.10E+00    5.4     0.01463016       -75.8074253414  1.22E-02
   221 Broy./Diag. 0.10E+00    5.3     0.02837629       -75.7983786596  9.05E-03
   222 Broy./Diag. 0.10E+00    5.3     0.02456910       -75.7956224281  2.76E-03
   223 Broy./Diag. 0.10E+00    5.3     0.02384243       -75.8012773916 -5.65E-03
   224 Broy./Diag. 0.10E+00    5.3     0.02072806       -75.8061387862 -4.86E-03
   225 Broy./Diag. 0.10E+00    5.3     0.10527784       -75.8129596565 -6.82E-03
   226 Broy./Diag. 0.10E+00    5.3     0.08207352       -75.8564500447 -4.35E-02
   227 Broy./Diag. 0.10E+00    5.4     0.11070744       -75.8458942123  1.06E-02
   228 Broy./Diag. 0.10E+00    5.4     0.06319316       -75.8363603381  9.53E-03
   229 Broy./Diag. 0.10E+00    5.6     0.03695802       -75.8033996749  3.30E-02
   230 Broy./Diag. 0.10E+00    5.5     0.07575001       -75.7907464768  1.27E-02
   231 Broy./Diag. 0.10E+00    5.5     0.08168641       -75.8073824645 -1.66E-02
   232 Broy./Diag. 0.10E+00    5.5     0.07300683       -75.7942535909  1.31E-02
   233 Broy./Diag. 0.10E+00    5.5     0.07573101       -75.7598867023  3.44E-02
   234 Broy./Diag. 0.10E+00    5.4     0.14419195       -75.7126389440  4.72E-02
   235 Broy./Diag. 0.10E+00    5.4     0.15821387       -75.6739670208  3.87E-02
   236 Broy./Diag. 0.10E+00    5.3     0.16689498       -75.6829207747 -8.95E-03
   237 Broy./Diag. 0.10E+00    5.3     0.10154465       -75.6751587551  7.76E-03
   238 Broy./Diag. 0.10E+00    5.3     0.07219329       -75.6294285813  4.57E-02
   239 Broy./Diag. 0.10E+00    5.3     0.06974067       -75.5784744642  5.10E-02
   240 Broy./Diag. 0.10E+00    5.4     0.10282736       -75.5849694249 -6.49E-03
   241 Broy./Diag. 0.10E+00    5.3     0.06847214       -75.5864233775 -1.45E-03
   242 Broy./Diag. 0.10E+00    5.5     0.03689383       -75.5765056809  9.92E-03
   243 Broy./Diag. 0.10E+00    5.5     0.11292074       -75.5792815408 -2.78E-03
   244 Broy./Diag. 0.10E+00    5.5     0.15208832       -75.5763090226  2.97E-03
   245 Broy./Diag. 0.10E+00    5.5     0.17992060       -75.6083262700 -3.20E-02
   246 Broy./Diag. 0.10E+00    5.6     0.17674342       -75.7054258506 -9.71E-02
   247 Broy./Diag. 0.10E+00    5.6     0.13618007       -75.7646893431 -5.93E-02
   248 Broy./Diag. 0.10E+00    5.4     0.10031024       -75.7911797649 -2.65E-02
   249 Broy./Diag. 0.10E+00    5.4     0.10569798       -75.7899183227  1.26E-03
   250 Broy./Diag. 0.10E+00    5.3     0.06709749       -75.7951363314 -5.22E-03
   251 Broy./Diag. 0.10E+00    5.3     0.06494345       -75.7948226200  3.14E-04
   252 Broy./Diag. 0.10E+00    5.3     0.08683184       -75.7937030253  1.12E-03
   253 Broy./Diag. 0.10E+00    5.3     0.07323007       -75.7759466835  1.78E-02
   254 Broy./Diag. 0.10E+00    5.3     0.04087014       -75.7549288208  2.10E-02
   255 Broy./Diag. 0.10E+00    5.3     0.04143305       -75.7252566359  2.97E-02
   256 Broy./Diag. 0.10E+00    5.3     0.05013967       -75.7393391610 -1.41E-02
   257 Broy./Diag. 0.10E+00    5.3     0.06541050       -75.7312406391  8.10E-03
   258 Broy./Diag. 0.10E+00    5.3     0.08537509       -75.7316341598 -3.94E-04
   259 Broy./Diag. 0.10E+00    5.5     0.11926500       -75.7080181620  2.36E-02
   260 Broy./Diag. 0.10E+00    5.4     0.16277806       -75.6732985504  3.47E-02
   261 Broy./Diag. 0.10E+00    5.5     0.17686848       -75.6199485948  5.33E-02
   262 Broy./Diag. 0.10E+00    5.5     0.18023341       -75.5703681551  4.96E-02
   263 Broy./Diag. 0.10E+00    5.5     0.32477445       -75.3469797918  2.23E-01
   264 Broy./Diag. 0.10E+00    5.6     0.11448419       -75.3501140154 -3.13E-03
   265 Broy./Diag. 0.10E+00    5.5     0.05497148       -75.3138559226  3.63E-02
   266 Broy./Diag. 0.10E+00    5.4     0.02047662       -75.3249666645 -1.11E-02
   267 Broy./Diag. 0.10E+00    5.4     0.01240690       -75.3089970200  1.60E-02
   268 Broy./Diag. 0.10E+00    5.4     0.00924558       -75.3036434589  5.35E-03
   269 Broy./Diag. 0.10E+00    5.3     0.05704535       -75.2236417303  8.00E-02
   270 Broy./Diag. 0.10E+00    5.4     0.07225188       -75.3269673720 -1.03E-01
   271 Broy./Diag. 0.10E+00    5.3     0.57366588       -75.5673629076 -2.40E-01
   272 Broy./Diag. 0.10E+00    5.3     0.25441395       -75.7562895081 -1.89E-01
   273 Broy./Diag. 0.10E+00    5.3     0.10634026       -75.7567183345 -4.29E-04
   274 Broy./Diag. 0.10E+00    5.3     0.07278251       -75.7700281496 -1.33E-02
   275 Broy./Diag. 0.10E+00    5.4     0.16359098       -75.6085509917  1.61E-01
   276 Broy./Diag. 0.10E+00    5.4     0.39144237       -75.7061791908 -9.76E-02
   277 Broy./Diag. 0.10E+00    5.6     0.29075751       -75.5571158267  1.49E-01
   278 Broy./Diag. 0.10E+00    5.5     0.15941481       -75.4169493795  1.40E-01
   279 Broy./Diag. 0.10E+00    5.5     0.12300097       -75.5465245566 -1.30E-01
   280 Broy./Diag. 0.10E+00    5.4     0.06044785       -75.6138164806 -6.73E-02
   281 Broy./Diag. 0.10E+00    5.4     0.06581332       -75.6653824310 -5.16E-02
   282 Broy./Diag. 0.10E+00    5.3     0.08079338       -75.6942425642 -2.89E-02
   283 Broy./Diag. 0.10E+00    5.3     0.11026039       -75.7115641183 -1.73E-02
   284 Broy./Diag. 0.10E+00    5.3     0.12485463       -75.7174189708 -5.85E-03
   285 Broy./Diag. 0.10E+00    5.4     0.25903279       -75.7850145076 -6.76E-02
   286 Broy./Diag. 0.10E+00    5.3     0.18735391       -75.8655852586 -8.06E-02
   287 Broy./Diag. 0.10E+00    5.3     0.06975186       -75.8697497714 -4.16E-03
   288 Broy./Diag. 0.10E+00    5.3     0.04860448       -75.9314209565 -6.17E-02
   289 Broy./Diag. 0.10E+00    5.3     0.04779652       -75.9572294264 -2.58E-02
   290 Broy./Diag. 0.10E+00    5.3     0.02382308       -75.9555165267  1.71E-03
   291 Broy./Diag. 0.10E+00    5.3     0.03796008       -75.9651136228 -9.60E-03
   292 Broy./Diag. 0.10E+00    5.5     0.01861309       -75.9852317216 -2.01E-02
   293 Broy./Diag. 0.10E+00    5.6     0.17733026       -75.8743677571  1.11E-01
   294 Broy./Diag. 0.10E+00    5.6     0.34911768       -75.8419730555  3.24E-02
   295 Broy./Diag. 0.10E+00    5.5     0.21865509       -75.7941329190  4.78E-02
   296 Broy./Diag. 0.10E+00    5.5     0.07634995       -75.7758341744  1.83E-02
   297 Broy./Diag. 0.10E+00    5.4     0.21499336       -75.7600996857  1.57E-02
   298 Broy./Diag. 0.10E+00    5.4     0.16245630       -75.7791182247 -1.90E-02
   299 Broy./Diag. 0.10E+00    5.4     0.21956441       -75.8449012762 -6.58E-02
   300 Broy./Diag. 0.10E+00    5.3     0.13763776       -75.8784009119 -3.35E-02
   301 Broy./Diag. 0.10E+00    5.3     0.10114528       -75.8213938402  5.70E-02
   302 Broy./Diag. 0.10E+00    5.3     0.09419458       -75.8545924503 -3.32E-02
   303 Broy./Diag. 0.10E+00    5.3     0.14316393       -75.8417905227  1.28E-02
   304 Broy./Diag. 0.10E+00    5.3     0.20414465       -75.7879457578  5.38E-02
   305 Broy./Diag. 0.10E+00    5.3     0.22633667       -75.7499011012  3.80E-02
   306 Broy./Diag. 0.10E+00    5.3     0.22328241       -75.6826748650  6.72E-02
   307 Broy./Diag. 0.10E+00    5.3     0.10575857       -75.6448642107  3.78E-02
   308 Broy./Diag. 0.10E+00    5.3     0.06765471       -75.6119263596  3.29E-02
   309 Broy./Diag. 0.10E+00    5.6     0.05225449       -75.6313465435 -1.94E-02
   310 Broy./Diag. 0.10E+00    5.5     0.04099929       -75.6559281186 -2.46E-02
   311 Broy./Diag. 0.10E+00    5.5     0.02465061       -75.6653495247 -9.42E-03
   312 Broy./Diag. 0.10E+00    5.5     0.03292946       -75.6710714800 -5.72E-03
   313 Broy./Diag. 0.10E+00    5.5     0.03147833       -75.6631537816  7.92E-03
   314 Broy./Diag. 0.10E+00    5.6     0.03206129       -75.6910879047 -2.79E-02
   315 Broy./Diag. 0.10E+00    5.3     0.03395874       -75.7369037650 -4.58E-02
   316 Broy./Diag. 0.10E+00    5.4     0.04825105       -75.7488762862 -1.20E-02
   317 Broy./Diag. 0.10E+00    5.3     0.05213906       -75.7451994865  3.68E-03
   318 Broy./Diag. 0.10E+00    5.3     0.10945867       -75.7450918925  1.08E-04
   319 Broy./Diag. 0.10E+00    5.3     0.26488832       -75.7566922828 -1.16E-02
   320 Broy./Diag. 0.10E+00    5.3     0.28068202       -75.8150770236 -5.84E-02
   321 Broy./Diag. 0.10E+00    5.3     0.16057958       -75.8754552557 -6.04E-02
   322 Broy./Diag. 0.10E+00    5.3     0.07825750       -75.9059355276 -3.05E-02
   323 Broy./Diag. 0.10E+00    5.3     0.07499043       -75.9360774529 -3.01E-02
   324 Broy./Diag. 0.10E+00    5.4     0.03795554       -75.9263010982  9.78E-03
   325 Broy./Diag. 0.10E+00    5.4     0.02186153       -75.9253859346  9.15E-04
   326 Broy./Diag. 0.10E+00    5.5     0.06540963       -75.9128313183  1.26E-02
   327 Broy./Diag. 0.10E+00    5.4     0.03742770       -75.9281541014 -1.53E-02
   328 Broy./Diag. 0.10E+00    5.4     0.07703304       -75.9031655829  2.50E-02
   329 Broy./Diag. 0.10E+00    5.6     0.16599893       -75.8326687216  7.05E-02
   330 Broy./Diag. 0.10E+00    5.5     0.13930143       -75.8220953005  1.06E-02
   331 Broy./Diag. 0.10E+00    5.6     0.08109153       -75.8212459585  8.49E-04
   332 Broy./Diag. 0.10E+00    5.4     0.06078696       -75.7986804049  2.26E-02
   333 Broy./Diag. 0.10E+00    5.4     0.06573116       -75.7926078784  6.07E-03
   334 Broy./Diag. 0.10E+00    5.3     0.03815038       -75.7731222490  1.95E-02
   335 Broy./Diag. 0.10E+00    5.3     0.02938843       -75.7501498404  2.30E-02
   336 Broy./Diag. 0.10E+00    5.3     0.08275465       -75.7276324104  2.25E-02
   337 Broy./Diag. 0.10E+00    5.3     0.07635436       -75.7452562815 -1.76E-02
   338 Broy./Diag. 0.10E+00    5.3     0.12241096       -75.7634188898 -1.82E-02
   339 Broy./Diag. 0.10E+00    5.4     0.19121979       -75.7772667321 -1.38E-02
   340 Broy./Diag. 0.10E+00    5.5     0.13149268       -75.7965008922 -1.92E-02
   341 Broy./Diag. 0.10E+00    5.5     0.04431495       -75.8032035714 -6.70E-03
   342 Broy./Diag. 0.10E+00    5.4     0.02084953       -75.8210005653 -1.78E-02
   343 Broy./Diag. 0.10E+00    5.4     0.01652205       -75.8288981576 -7.90E-03
   344 Broy./Diag. 0.10E+00    5.5     0.07311520       -75.8054225038  2.35E-02
   345 Broy./Diag. 0.10E+00    5.5     0.10608834       -75.7977679979  7.65E-03
   346 Broy./Diag. 0.10E+00    5.5     0.13170824       -75.7699724638  2.78E-02
   347 Broy./Diag. 0.10E+00    5.4     0.14725851       -75.7347024072  3.53E-02
   348 Broy./Diag. 0.10E+00    5.4     0.14989181       -75.6899192504  4.48E-02
   349 Broy./Diag. 0.10E+00    5.4     0.16274821       -75.6428310744  4.71E-02
   350 Broy./Diag. 0.10E+00    5.3     0.14154618       -75.6015794853  4.13E-02
[...]
   418 Broy./Diag. 0.10E+00    5.5     0.07954646       -75.6446270618  4.08E-02
   419 Broy./Diag. 0.10E+00    5.4     0.11934773       -75.5782155217  6.64E-02
   420 Broy./Diag. 0.10E+00    5.6     0.06294028       -75.5641351911  1.41E-02
   421 Broy./Diag. 0.10E+00    5.4     0.09474648       -75.6163950743 -5.23E-02
   422 Broy./Diag. 0.10E+00    5.6     0.11384398       -75.6865299346 -7.01E-02
   423 Broy./Diag. 0.10E+00    5.5     0.30010347       -75.7758829182 -8.94E-02
   424 Broy./Diag. 0.10E+00    5.5     0.43420384       -75.8343296312 -5.84E-02
   425 Broy./Diag. 0.10E+00    5.4     0.20255664       -75.8156985169  1.86E-02
   426 Broy./Diag. 0.10E+00    5.3     0.17253035       -75.8323124150 -1.66E-02
   427 Broy./Diag. 0.10E+00    5.3     0.13812969       -75.8619880156 -2.97E-02
   428 Broy./Diag. 0.10E+00    5.3     0.11627025       -75.8861243594 -2.41E-02
   429 Broy./Diag. 0.10E+00    5.3     0.10493822       -75.8402933050  4.58E-02
   430 Broy./Diag. 0.10E+00    5.5     0.11944063       -75.8273661400  1.29E-02
   431 Broy./Diag. 0.10E+00    5.6     0.09814370       -75.7891592414  3.82E-02
   432 Broy./Diag. 0.10E+00    5.5     0.10673237       -75.7344453013  5.47E-02
   433 Broy./Diag. 0.10E+00    5.3     0.12057332       -75.6551655338  7.93E-02
   434 Broy./Diag. 0.10E+00    5.4     0.08834380       -75.6380008588  1.72E-02
   435 Broy./Diag. 0.10E+00    5.4     0.06415323       -75.6405280223 -2.53E-03
   436 Broy./Diag. 0.10E+00    5.5     0.08372561       -75.6233879475  1.71E-02
   437 Broy./Diag. 0.10E+00    5.5     0.21103118       -75.5732858715  5.01E-02
   438 Broy./Diag. 0.10E+00    5.4     0.16637774       -75.5715300181  1.76E-03
   439 Broy./Diag. 0.10E+00    5.4     0.09741691       -75.6150870849 -4.36E-02
   440 Broy./Diag. 0.10E+00    5.3     0.09059560       -75.5935123402  2.16E-02
   441 Broy./Diag. 0.10E+00    5.4     0.06277621       -75.6346050283 -4.11E-02
   442 Broy./Diag. 0.10E+00    5.3     0.05091690       -75.6837076050 -4.91E-02
   443 Broy./Diag. 0.10E+00    5.3     0.03818785       -75.7347631848 -5.11E-02
   444 Broy./Diag. 0.10E+00    5.3     0.03694908       -75.7806008162 -4.58E-02
   445 Broy./Diag. 0.10E+00    5.5     0.03876353       -75.7861576548 -5.56E-03
   446 Broy./Diag. 0.10E+00    5.6     0.02867021       -75.7625444195  2.36E-02
   447 Broy./Diag. 0.10E+00    5.5     0.21412568       -75.8013175434 -3.88E-02
   448 Broy./Diag. 0.10E+00    5.5     0.27461402       -75.8095264024 -8.21E-03
   449 Broy./Diag. 0.10E+00    5.3     0.23505506       -75.8363147177 -2.68E-02
   450 Broy./Diag. 0.10E+00    5.4     0.13348336       -75.7929166581  4.34E-02
   451 Broy./Diag. 0.10E+00    5.4     0.11568695       -75.8162716992 -2.34E-02
   452 Broy./Diag. 0.10E+00    5.5     0.12193540       -75.8537230889 -3.75E-02
   453 Broy./Diag. 0.10E+00    5.6     0.07283948       -75.8272813568  2.64E-02
   454 Broy./Diag. 0.10E+00    5.4     0.07059769       -75.8406272832 -1.33E-02
   455 Broy./Diag. 0.10E+00    5.4     0.08991705       -75.8374094282  3.22E-03
   456 Broy./Diag. 0.10E+00    5.3     0.07760860       -75.8233161452  1.41E-02
   457 Broy./Diag. 0.10E+00    5.4     0.08450652       -75.7976933388  2.56E-02
   458 Broy./Diag. 0.10E+00    5.3     0.10192702       -75.7576041285  4.01E-02
   459 Broy./Diag. 0.10E+00    5.4     0.06514285       -75.7570327070  5.71E-04
   460 Broy./Diag. 0.10E+00    5.4     0.07471557       -75.7077351023  4.93E-02
   461 Broy./Diag. 0.10E+00    5.5     0.08223821       -75.6688734998  3.89E-02
   462 Broy./Diag. 0.10E+00    5.5     0.08307585       -75.6572225682  1.17E-02
   463 Broy./Diag. 0.10E+00    5.4     0.08363235       -75.6454373301  1.18E-02
   464 Broy./Diag. 0.10E+00    5.4     0.06359577       -75.6399362024  5.50E-03
   465 Broy./Diag. 0.10E+00    5.3     0.12868555       -75.6353549895  4.58E-03
   466 Broy./Diag. 0.10E+00    5.5     0.16831332       -75.6046450577  3.07E-02
   467 Broy./Diag. 0.10E+00    5.5     0.10972963       -75.6007124215  3.93E-03
   468 Broy./Diag. 0.10E+00    5.5     0.07281871       -75.5965949780  4.12E-03
   469 Broy./Diag. 0.10E+00    5.5     0.06113448       -75.5566529790  3.99E-02
   470 Broy./Diag. 0.10E+00    5.4     0.04336039       -75.5417398643  1.49E-02
   471 Broy./Diag. 0.10E+00    5.4     0.04838081       -75.5211313376  2.06E-02
   472 Broy./Diag. 0.10E+00    5.3     0.11609318       -75.4976083385  2.35E-02
   473 Broy./Diag. 0.10E+00    5.3     0.15636909       -75.7523620453 -2.55E-01
   474 Broy./Diag. 0.10E+00    5.5     0.09003463       -75.8681960721 -1.16E-01
   475 Broy./Diag. 0.10E+00    5.6     0.08852484       -75.8360273480  3.22E-02
   476 Broy./Diag. 0.10E+00    5.5     0.06471645       -75.8598800231 -2.39E-02
   477 Broy./Diag. 0.10E+00    5.4     0.12490428       -75.8778408325 -1.80E-02
   478 Broy./Diag. 0.10E+00    5.4     0.15643808       -75.8509597841  2.69E-02
   479 Broy./Diag. 0.10E+00    5.3     0.22972997       -75.8670131743 -1.61E-02
   480 Broy./Diag. 0.10E+00    5.3     0.21859805       -75.9329667779 -6.60E-02
   481 Broy./Diag. 0.10E+00    5.4     0.15596660       -75.9897055913 -5.67E-02
   482 Broy./Diag. 0.10E+00    5.5     0.09027130       -75.9961029759 -6.40E-03
   483 Broy./Diag. 0.10E+00    5.5     0.03997480       -75.9657164664  3.04E-02
   484 Broy./Diag. 0.10E+00    5.4     0.05201064       -75.9377358301  2.80E-02
   485 Broy./Diag. 0.10E+00    5.3     0.01500518       -75.9320137720  5.72E-03
   486 Broy./Diag. 0.10E+00    5.4     0.07191903       -75.9277484505  4.27E-03
   487 Broy./Diag. 0.10E+00    5.3     0.02667493       -75.9159777501  1.18E-02
   488 Broy./Diag. 0.10E+00    5.3     0.11061912       -75.8326123517  8.34E-02
   489 Broy./Diag. 0.10E+00    5.4     0.15939578       -75.7492667250  8.33E-02
   490 Broy./Diag. 0.10E+00    5.5     0.18597804       -75.6704972869  7.88E-02
   491 Broy./Diag. 0.10E+00    5.5     0.11314384       -75.6647505782  5.75E-03
   492 Broy./Diag. 0.10E+00    5.4     0.07204982       -75.6427463805  2.20E-02
   493 Broy./Diag. 0.10E+00    5.4     0.04505334       -75.6284810940  1.43E-02
   494 Broy./Diag. 0.10E+00    5.4     0.05612328       -75.6189293439  9.55E-03
   495 Broy./Diag. 0.10E+00    5.3     0.04155375       -75.5886959770  3.02E-02
   496 Broy./Diag. 0.10E+00    5.3     0.10787274       -75.5584389295  3.03E-02
   497 Broy./Diag. 0.10E+00    5.4     0.12362883       -75.5972662537 -3.88E-02
   498 Broy./Diag. 0.10E+00    5.5     0.04260435       -75.6421542544 -4.49E-02
   499 Broy./Diag. 0.10E+00    5.6     0.06718267       -75.6280554273  1.41E-02
   500 Broy./Diag. 0.10E+00    5.4     0.13837227       -75.6061497329  2.19E-02

  Leaving inner SCF loop after reaching   500 steps.


  Electronic density on regular grids:         -8.3259904941        3.6740095059
  Core density on regular grids:               12.0000000000        0.0000000000
  Hard and soft densities (Lebedev):          -21.5347249938      -17.8489087536
  Total Rho_soft + Rho1_hard - Rho1_soft      -12.0118067343
  Total charge density (r-space):              -0.0118067343
  Total Rho_soft + Rho0_soft (g-space):        -0.0118068046

  Overlap energy of the core charge distribution:               0.00003125550742
  Self energy of the core charge distribution:                -58.22549323810243
  Core Hamiltonian energy:                                    -15.16396329424068
  Hartree energy:                                              16.89254333467499
  Exchange-correlation energy:                                 -2.60009104239233
  Hartree-Fock Exchange energy:                                -2.53283526936404

  GAPW| Exc from hard and soft atomic rho1:                    -5.34904401917124
  GAPW| local Eh = 1 center integrals:                         -8.62729745985276

  Total energy:                                               -75.60614973294108

 *******************************************************************************
 *   ___                                                                       *
 *  /   \                                                                      *
 * [ABORT]                                                                     *
 *  \___/     SCF run NOT converged. To continue the calculation regardless,   *
 *    |             please set the keyword IGNORE_CONVERGENCE_FAILURE.         *
 *  O/|                                                                        *
 * /| |                                                                        *
 * / \                                                            qs_scf.F:611 *
 *******************************************************************************


 ===== Routine Calling Stack ===== 

            3 scf_env_do_scf
            2 qs_energies
            1 CP2K

 *******************************************************************************
 *   ___                                                                       *
 *  /   \                                                                      *
 * [ABORT]                                                                     *
 *  \___/     SCF run NOT converged. To continue the calculation regardless,   *
 *    |             please set the keyword IGNORE_CONVERGENCE_FAILURE.         *
 *  O/|                                                                        *
 * /| |                                                                        *
 * / \                                                            qs_scf.F:611 *
 *******************************************************************************


 ===== Routine Calling Stack ===== 

            3 scf_env_do_scf
            2 qs_energies
            1 CP2K

 *******************************************************************************
 *   ___                                                                       *
 *  /   \                                                                      *
 * [ABORT]                                                                     *
 *  \___/     SCF run NOT converged. To continue the calculation regardless,   *
 *    |             please set the keyword IGNORE_CONVERGENCE_FAILURE.         *
 *  O/|                                                                        *
 * /| |                                                                        *
 * / \                                                            qs_scf.F:611 *
 *******************************************************************************


 ===== Routine Calling Stack ===== 

            3 scf_env_do_scf
            2 qs_energies
            1 CP2K

 *******************************************************************************
 *   ___                                                                       *
 *  /   \                                                                      *
 * [ABORT]                                                                     *
 *  \___/     SCF run NOT converged. To continue the calculation regardless,   *
 *    |             please set the keyword IGNORE_CONVERGENCE_FAILURE.         *
 *  O/|                                                                        *
 * /| |                                                                        *
 * / \                                                            qs_scf.F:611 *
 *******************************************************************************


 ===== Routine Calling Stack ===== 

            3 scf_env_do_scf
            2 qs_energies
            1 CP2K

 *******************************************************************************
 *   ___                                                                       *
 *  /   \                                                                      *
 * [ABORT]                                                                     *
 *  \___/     SCF run NOT converged. To continue the calculation regardless,   *
 *    |             please set the keyword IGNORE_CONVERGENCE_FAILURE.         *
 *  O/|                                                                        *
 * /| |                                                                        *
 * / \                                                            qs_scf.F:611 *
 *******************************************************************************


 ===== Routine Calling Stack ===== 

            3 scf_env_do_scf
            2 qs_energies
            1 CP2K

 *******************************************************************************
 *   ___                                                                       *
 *  /   \                                                                      *
 * [ABORT]                                                                     *
 *  \___/     SCF run NOT converged. To continue the calculation regardless,   *
 *    |             please set the keyword IGNORE_CONVERGENCE_FAILURE.         *
 *  O/|                                                                        *
 * /| |                                                                        *
 * / \                                                            qs_scf.F:611 *
 *******************************************************************************


 ===== Routine Calling Stack ===== 

            3 scf_env_do_scf
            2 qs_energies
            1 CP2K

 *******************************************************************************
 *   ___                                                                       *
 *  /   \                                                                      *
 * [ABORT]                                                                     *
 *  \___/     SCF run NOT converged. To continue the calculation regardless,   *
 *    |             please set the keyword IGNORE_CONVERGENCE_FAILURE.         *
 *  O/|                                                                        *
 * /| |                                                                        *
 * / \                                                            qs_scf.F:611 *
 *******************************************************************************


 ===== Routine Calling Stack ===== 

            3 scf_env_do_scf
            2 qs_energies
            1 CP2K

 *******************************************************************************
 *   ___                                                                       *
 *  /   \                                                                      *
 * [ABORT]                                                                     *
 *  \___/     SCF run NOT converged. To continue the calculation regardless,   *
 *    |             please set the keyword IGNORE_CONVERGENCE_FAILURE.         *
 *  O/|                                                                        *
 * /| |                                                                        *
 * / \                                                            qs_scf.F:611 *
 *******************************************************************************


 ===== Routine Calling Stack ===== 

            3 scf_env_do_scf
            2 qs_energies
            1 CP2K

 *******************************************************************************
 *   ___                                                                       *
 *  /   \                                                                      *
 * [ABORT]                                                                     *
 *  \___/     SCF run NOT converged. To continue the calculation regardless,   *
 *    |             please set the keyword IGNORE_CONVERGENCE_FAILURE.         *
 *  O/|                                                                        *
 * /| |                                                                        *
 * / \                                                            qs_scf.F:611 *
 *******************************************************************************


 ===== Routine Calling Stack ===== 

            3 scf_env_do_scf
            2 qs_energies
            1 CP2K

 *******************************************************************************
 *   ___                                                                       *
 *  /   \                                                                      *
 * [ABORT]                                                                     *
 *  \___/     SCF run NOT converged. To continue the calculation regardless,   *
 *    |             please set the keyword IGNORE_CONVERGENCE_FAILURE.         *
 *  O/|                                                                        *
 * /| |                                                                        *
 * / \                                                            qs_scf.F:611 *
 *******************************************************************************


 ===== Routine Calling Stack ===== 

            3 scf_env_do_scf
            2 qs_energies
            1 CP2K

 *******************************************************************************
 *   ___                                                                       *
 *  /   \                                                                      *
 * [ABORT]                                                                     *
 *  \___/     SCF run NOT converged. To continue the calculation regardless,   *
 *    |             please set the keyword IGNORE_CONVERGENCE_FAILURE.         *
 *  O/|                                                                        *
 * /| |                                                                        *
 * / \                                                            qs_scf.F:611 *
 *******************************************************************************


 ===== Routine Calling Stack ===== 

            3 scf_env_do_scf
            2 qs_energies
            1 CP2K

 *******************************************************************************
 *   ___                                                                       *
 *  /   \                                                                      *
 * [ABORT]                                                                     *
 *  \___/     SCF run NOT converged. To continue the calculation regardless,   *
 *    |             please set the keyword IGNORE_CONVERGENCE_FAILURE.         *
 *  O/|                                                                        *
 * /| |                                                                        *
 * / \                                                            qs_scf.F:611 *
 *******************************************************************************


 ===== Routine Calling Stack ===== 

            3 scf_env_do_scf
            2 qs_energies
            1 CP2K

 *******************************************************************************
 *   ___                                                                       *
 *  /   \                                                                      *
 * [ABORT]                                                                     *
 *  \___/     SCF run NOT converged. To continue the calculation regardless,   *
 *    |             please set the keyword IGNORE_CONVERGENCE_FAILURE.         *
 *  O/|                                                                        *
 * /| |                                                                        *
 * / \                                                            qs_scf.F:611 *
 *******************************************************************************


 ===== Routine Calling Stack ===== 

            3 scf_env_do_scf
            2 qs_energies
            1 CP2K
