 DBCSR| CPU Multiplication driver                                           BLAS (U)
 DBCSR| Multrec recursion limit                                              512 (U)
 DBCSR| Multiplication stack size                                           1000 (D)
 DBCSR| Maximum elements for images                                    UNLIMITED (U)
 DBCSR| Multiplicative factor virtual images                                   1 (U)
 DBCSR| Use multiplication densification                                       T (D)
 DBCSR| Multiplication size stacks                                             3 (U)
 DBCSR| Use memory pool for CPU allocation                                     F (U)
 DBCSR| Number of 3D layers                                               SINGLE (U)
 DBCSR| Use MPI memory allocation                                              F (U)
 DBCSR| Use RMA algorithm                                                      F (U)
 DBCSR| Use Communication thread                                               T (U)
 DBCSR| Communication thread load                                             75 (D)
 DBCSR| MPI: My process id                                                     0
 DBCSR| MPI: Number of processes                                              24
 DBCSR| OMP: Current number of threads                                         4
 DBCSR| OMP: Max number of threads                                             4
 DBCSR| Split modifier for TAS multiplication algorithm                  1.0E+00 (U)


  **** **** ******  **  PROGRAM STARTED AT               2025-03-04 08:04:20.459
 ***** ** ***  *** **   PROGRAM STARTED ON                          i02r01c01s05
 **    ****   ******    PROGRAM STARTED BY                               di38fab
 ***** **    ** ** **   PROGRAM PROCESS ID                               1088741
  **** **  *******  **  PROGRAM STARTED IN /hppfs/scratch/04/di38fab/05_MOL/W4-1
                                           1+ALK/o2/SZVSR

 CP2K| version string:                 CP2K version 2025.1 (Development Version)
 CP2K| source code revision number:                                  git:47877ba
 CP2K| cp2kflags: omp libint fftw3 libxc parallel scalapack max_contr=4         
 CP2K| is freely available from                            https://www.cp2k.org/
 CP2K| Program compiled at                          Thu Feb 20 16:00:34 CET 2025
 CP2K| Program compiled on                                               login04
 CP2K| Program compiled for                                        Supermuc-foss
 CP2K| Data directory path          /hppfs/work/pn36zo/di38fab/newcp2k/cp2k/data
 CP2K| Input file name                                                    GW.inp

 GLOBAL| Force Environment number                                              1
 GLOBAL| Basis set file name            /hppfs/scratch/04/di38fab/04_TMD/BASIS_A
 GLOBAL| Potential file name            /hppfs/work/pn36zo/di38fab/cp2k/data/ALL
 GLOBAL| MM Potential file name                                     MM_POTENTIAL
 GLOBAL| Coordinate file name                                      __STD_INPUT__
 GLOBAL| Method name                                                        CP2K
 GLOBAL| Project name                                                       MoS2
 GLOBAL| Run type                                                         ENERGY
 GLOBAL| FFT library                                                       FFTW3
 GLOBAL| Diagonalization library                                       ScaLAPACK
 GLOBAL| DGEMM library                                                      BLAS
 GLOBAL| Orthonormality check for eigenvectors                          DISABLED
 GLOBAL| Matrix multiplication library                                 ScaLAPACK
 GLOBAL| All-to-all communication in single precision                          F
 GLOBAL| FFTs using library dependent lengths                                  F
 GLOBAL| Grid backend                                                       AUTO
 GLOBAL| Global print level                                               MEDIUM
 GLOBAL| MPI I/O enabled                                                       T
 GLOBAL| Total number of message passing processes                            24
 GLOBAL| Number of threads for this process                                    4
 GLOBAL| This output is from process                                           0
 GLOBAL| OpenMP stack size per thread (OMP_STACKSIZE)                    default
 GLOBAL| CPU model name             Intel(R) Xeon(R) Platinum 8174 CPU @ 3.10GHz

 MEMORY| system memory details [Kb]
 MEMORY|                        rank 0           min           max       average
 MEMORY| MemTotal             98436708      98436664      98436708      98436686
 MEMORY| MemFree              83885388      83642416      83885388      83763902
 MEMORY| Buffers                     0             0             0             0
 MEMORY| Cached                2436980       2436980       2453116       2445048
 MEMORY| Slab                  1240692       1240692       1243200       1241946
 MEMORY| SReclaimable           267776        267776        277064        272420
 MEMORY| MemLikelyFree        86590144      86372596      86590144      86481370


 *** Fundamental physical constants (SI units) ***

 *** Literature: B. J. Mohr and B. N. Taylor,
 ***             CODATA recommended values of the fundamental physical
 ***             constants: 2006, Web Version 5.1
 ***             http://physics.nist.gov/constants

 Speed of light in vacuum [m/s]                             2.99792458000000E+08
 Magnetic constant or permeability of vacuum [N/A**2]       1.25663706143592E-06
 Electric constant or permittivity of vacuum [F/m]          8.85418781762039E-12
 Planck constant (h) [J*s]                                  6.62606896000000E-34
 Planck constant (h-bar) [J*s]                              1.05457162825177E-34
 Elementary charge [C]                                      1.60217648700000E-19
 Electron mass [kg]                                         9.10938215000000E-31
 Electron g factor [ ]                                     -2.00231930436220E+00
 Proton mass [kg]                                           1.67262163700000E-27
 Fine-structure constant                                    7.29735253760000E-03
 Rydberg constant [1/m]                                     1.09737315685270E+07
 Avogadro constant [1/mol]                                  6.02214179000000E+23
 Boltzmann constant [J/K]                                   1.38065040000000E-23
 Atomic mass unit [kg]                                      1.66053878200000E-27
 Bohr radius [m]                                            5.29177208590000E-11

 *** Conversion factors ***

 [u] -> [a.u.]                                              1.82288848426455E+03
 [Angstrom] -> [Bohr] = [a.u.]                              1.88972613288564E+00
 [a.u.] = [Bohr] -> [Angstrom]                              5.29177208590000E-01
 [a.u.] -> [s]                                              2.41888432650478E-17
 [a.u.] -> [fs]                                             2.41888432650478E-02
 [a.u.] -> [J]                                              4.35974393937059E-18
 [a.u.] -> [N]                                              8.23872205491840E-08
 [a.u.] -> [K]                                              3.15774647902944E+05
 [a.u.] -> [kJ/mol]                                         2.62549961709828E+03
 [a.u.] -> [kcal/mol]                                       6.27509468713739E+02
 [a.u.] -> [Pa]                                             2.94210107994716E+13
 [a.u.] -> [bar]                                            2.94210107994716E+08
 [a.u.] -> [atm]                                            2.90362800883016E+08
 [a.u.] -> [eV]                                             2.72113838565563E+01
 [a.u.] -> [Hz]                                             6.57968392072181E+15
 [a.u.] -> [1/cm] (wave numbers)                            2.19474631370540E+05
 [a.u./Bohr**2] -> [1/cm]                                   5.14048714338585E+03
 

 CELL_TOP| Volume [angstrom^3]:                                     27000.000000
 CELL_TOP| Vector a [angstrom    30.000     0.000     0.000   |a| =    30.000000
 CELL_TOP| Vector b [angstrom     0.000    30.000     0.000   |b| =    30.000000
 CELL_TOP| Vector c [angstrom     0.000     0.000    30.000   |c| =    30.000000
 CELL_TOP| Angle (b,c), alpha [degree]:                                90.000000
 CELL_TOP| Angle (a,c), beta  [degree]:                                90.000000
 CELL_TOP| Angle (a,b), gamma [degree]:                                90.000000
 CELL_TOP| Numerically orthorhombic:                                         YES
 CELL_TOP| Periodicity                                                      NONE

 GENERATE|  Preliminary Number of Bonds generated:                             0
 GENERATE|  Achieved consistency in connectivity generation.

 CELL| Volume [angstrom^3]:                                         27000.000000
 CELL| Vector a [angstrom]:      30.000     0.000     0.000   |a| =    30.000000
 CELL| Vector b [angstrom]:       0.000    30.000     0.000   |b| =    30.000000
 CELL| Vector c [angstrom]:       0.000     0.000    30.000   |c| =    30.000000
 CELL| Angle (b,c), alpha [degree]:                                    90.000000
 CELL| Angle (a,c), beta  [degree]:                                    90.000000
 CELL| Angle (a,b), gamma [degree]:                                    90.000000
 CELL| Numerically orthorhombic:                                             YES
 CELL| Periodicity                                                          NONE

 CELL_REF| Volume [angstrom^3]:                                     27000.000000
 CELL_REF| Vector a [angstrom    30.000     0.000     0.000   |a| =    30.000000
 CELL_REF| Vector b [angstrom     0.000    30.000     0.000   |b| =    30.000000
 CELL_REF| Vector c [angstrom     0.000     0.000    30.000   |c| =    30.000000
 CELL_REF| Angle (b,c), alpha [degree]:                                90.000000
 CELL_REF| Angle (a,c), beta  [degree]:                                90.000000
 CELL_REF| Angle (a,b), gamma [degree]:                                90.000000
 CELL_REF| Numerically orthorhombic:                                         YES
 CELL_REF| Periodicity                                                      NONE

 *******************************************************************************
 *******************************************************************************
 **                                                                           **
 **     #####                         ##              ##                      **
 **    ##   ##            ##          ##              ##                      **
 **   ##     ##                       ##            ######                    **
 **   ##     ##  ##   ##  ##   #####  ##  ##   ####   ##    #####    #####    **
 **   ##     ##  ##   ##  ##  ##      ## ##   ##      ##   ##   ##  ##   ##   **
 **   ##  ## ##  ##   ##  ##  ##      ####     ###    ##   ######   ######    **
 **    ##  ###   ##   ##  ##  ##      ## ##      ##   ##   ##       ##        **
 **     #######   #####   ##   #####  ##  ##  ####    ##    #####   ##        **
 **           ##                                                    ##        **
 **                                                                           **
 **                                                ... make the atoms dance   **
 **                                                                           **
 **            Copyright (C) by CP2K developers group (2000-2025)             **
 **                      J. Chem. Phys. 152, 194103 (2020)                    **
 **                                                                           **
 *******************************************************************************

 DFT| Spin restricted Kohn-Sham (RKS) calculation                            RKS
 DFT| Multiplicity                                                             1
 DFT| Number of spin states                                                    1
 DFT| Charge                                                                   0
 DFT| Self-interaction correction (SIC)                                       NO
 DFT| Cutoffs: density                                              1.000000E-10
 DFT|          gradient                                             1.000000E-10
 DFT|          tau                                                  1.000000E-10
 DFT|          cutoff_smoothing_range                               0.000000E+00
 DFT| XC density smoothing                                                  NONE
 DFT| XC derivatives                                                          PW

 FUNCTIONAL| PBE:
 FUNCTIONAL| J.P.Perdew, K.Burke, M.Ernzerhof, Phys. Rev. Letter, vol. 77, n 18,
 FUNCTIONAL|  pp. 3865-3868, (1996)sx=0.750sc=1.000{spin unpolarized}           


 QS| Method:                                                                GAPW
 QS| Density plane wave grid type                        NON-SPHERICAL FULLSPACE
 QS| Number of grid levels:                                                    4
 QS| Density cutoff [a.u.]:                                                250.0
 QS| Multi grid cutoff [a.u.]: 1) grid level                               250.0
 QS|                           2) grid level                                83.3
 QS|                           3) grid level                                27.8
 QS|                           4) grid level                                 9.3
 QS| Grid level progression factor:                                          3.0
 QS| Relative density cutoff [a.u.]:                                        50.0
 QS| Interaction thresholds: eps_pgf_orb:                                1.0E-12
 QS|                         eps_filter_matrix:                          0.0E+00
 QS|                         eps_core_charge:                            1.0E-14
 QS|                         eps_rho_gspace:                             1.0E-12
 QS|                         eps_rho_rspace:                             1.0E-12
 QS|                         eps_gvg_rspace:                             1.0E-06
 QS|                         eps_ppl:                                    1.0E-02
 QS|                         eps_ppnl:                                   1.0E-08
 QS| GAPW|      One center basis from orbital basis primitives
 QS| GAPW|                   eps_fit:                                    1.0E-04
 QS| GAPW|                   eps_iso:                                    1.0E-12
 QS| GAPW|                   eps_svd:                                    1.0E-08
 QS| GAPW|                   eps_cpc:                                    1.0E-12
 QS| GAPW|   atom-r-grid: quadrature:                                     GC_LOG
 QS| GAPW|      atom-s-grid:  max l :                                          4
 QS| GAPW|      max_l_rho0 :                                                   2


 ATOMIC KIND INFORMATION

  1. Atomic kind: O                                     Number of atoms:       2

     Orbital Basis Set                                      aug-SZV-MOLOPT-ae-SR

       Number of orbital shell sets:                                           2
       Number of orbital shells:                                               6
       Number of primitive Cartesian functions:                                7
       Number of Cartesian basis functions:                                   15
       Number of spherical basis functions:                                   14
       Norm type:                                                              2

       Normalised Cartesian orbitals:

                        Set   Shell   Orbital            Exponent    Coefficient

                          1       1    1s                0.162492       0.000000
                                                         0.380389       0.241686
                                                         1.169596       0.320234
                                                         5.033151      -0.239413

                          1       2    2s                0.162492       0.120425
                                                         0.380389       0.131001
                                                         1.169596      -0.000041
                                                         5.033151      -0.089217

                          1       3    2px               0.162492       0.000000
                                                         0.380389       0.166903
                                                         1.169596       1.053568
                                                         5.033151       1.675450
                          1       3    2py               0.162492       0.000000
                                                         0.380389       0.166903
                                                         1.169596       1.053568
                                                         5.033151       1.675450
                          1       3    2pz               0.162492       0.000000
                                                         0.380389       0.166903
                                                         1.169596       1.053568
                                                         5.033151       1.675450

                          1       4    3px               0.162492       0.001278
                                                         0.380389       0.422682
                                                         1.169596       0.000775
                                                         5.033151       0.003884
                          1       4    3py               0.162492       0.001278
                                                         0.380389       0.422682
                                                         1.169596       0.000775
                                                         5.033151       0.003884
                          1       4    3pz               0.162492       0.001278
                                                         0.380389       0.422682
                                                         1.169596       0.000775
                                                         5.033151       0.003884

                          1       5    3dx2              0.162492      -0.037898
                                                         0.380389       0.380180
                                                         1.169596       0.208664
                                                         5.033151       1.207157
                          1       5    3dxy              0.162492      -0.065641
                                                         0.380389       0.658491
                                                         1.169596       0.361417
                                                         5.033151       2.090858
                          1       5    3dxz              0.162492      -0.065641
                                                         0.380389       0.658491
                                                         1.169596       0.361417
                                                         5.033151       2.090858
                          1       5    3dy2              0.162492      -0.037898
                                                         0.380389       0.380180
                                                         1.169596       0.208664
                                                         5.033151       1.207157
                          1       5    3dyz              0.162492      -0.065641
                                                         0.380389       0.658491
                                                         1.169596       0.361417
                                                         5.033151       2.090858
                          1       5    3dz2              0.162492      -0.037898
                                                         0.380389       0.380180
                                                         1.169596       0.208664
                                                         5.033151       1.207157

                          2       1    1s              130.709321       4.251943
                                                        23.808866       4.112294
                                                         6.443608       1.281623

     RI Auxiliary Basis Set             RI_aug-SZV-MOLOPT-ae-SR_N_RI_041_s_p_d_f

       Number of orbital shell sets:                                          13
       Number of orbital shells:                                              13
       Number of primitive Cartesian functions:                               13
       Number of Cartesian basis functions:                                   49
       Number of spherical basis functions:                                   41
       Norm type:                                                              2

       Normalised Cartesian orbitals:

                        Set   Shell   Orbital            Exponent    Coefficient

                          1       1    1s                0.578587       0.472810

                          2       1    6px               0.780295       1.045355
                          2       1    6py               0.780295       1.045355
                          2       1    6pz               0.780295       1.045355

                          3       1   10dx2              0.833706       1.197242
                          3       1   10dxy              0.833706       2.073683
                          3       1   10dxz              0.833706       2.073683
                          3       1   10dy2              0.833706       1.197242
                          3       1   10dyz              0.833706       2.073683
                          3       1   10dz2              0.833706       1.197242

                          4       1   12fx3              1.109067       1.858272
                          4       1   12fx2y             1.109067       4.155223
                          4       1   12fx2z             1.109067       4.155223
                          4       1   12fxy2             1.109067       4.155223
                          4       1   12fxyz             1.109067       7.197057
                          4       1   12fxz2             1.109067       4.155223
                          4       1   12fy3              1.109067       1.858272
                          4       1   12fy2z             1.109067       4.155223
                          4       1   12fyz2             1.109067       4.155223
                          4       1   12fz3              1.109067       1.858272

                          5       1    2s                1.362244       0.898672

                          6       1    7px               1.646979       2.659500
                          6       1    7py               1.646979       2.659500
                          6       1    7pz               1.646979       2.659500

                          7       1   11dx2              3.352121      13.668437
                          7       1   11dxy              3.352121      23.674428
                          7       1   11dxz              3.352121      23.674428
                          7       1   11dy2              3.352121      13.668437
                          7       1   11dyz              3.352121      23.674428
                          7       1   11dz2              3.352121      13.668437

                          8       1   13fx3              4.593152      45.467791
                          8       1   13fx2y             4.593152     101.669072
                          8       1   13fx2z             4.593152     101.669072
                          8       1   13fxy2             4.593152     101.669072
                          8       1   13fxyz             4.593152     176.095999
                          8       1   13fxz2             4.593152     101.669072
                          8       1   13fy3              4.593152      45.467791
                          8       1   13fy2z             4.593152     101.669072
                          8       1   13fyz2             4.593152     101.669072
                          8       1   13fz3              4.593152      45.467791

                          9       1    3s                6.300889       2.834402

                         10       1    8px               7.242711      16.936222
                         10       1    8py               7.242711      16.936222
                         10       1    8pz               7.242711      16.936222

                         11       1    9px              31.220564     105.194011
                         11       1    9py              31.220564     105.194011
                         11       1    9pz              31.220564     105.194011

                         12       1    4s               32.040850       9.598163

                         13       1    5s              162.601818      32.452947

       Atomic covalent radius [Angstrom]:                                  0.730

       Atomic van der Waals radius [Angstrom]:                             1.520

     The atoms of this atomic kind are PAW atoms (GAPW):
       Hard Gaussian function radius:                                      1.512
       Rho0 radius:                                                        1.512
       Maximum GTO radius used for PAW projector construction:            24.566

     GAPW Soft Basis Set                               aug-SZV-MOLOPT-ae-SR_soft

       Number of orbital shell sets:                                           2
       Number of orbital shells:                                               6
       Number of primitive Cartesian functions:                                3
       Number of Cartesian basis functions:                                   15
       Number of spherical basis functions:                                   14
       Norm type:                                                              2

       Normalised Cartesian orbitals:

                        Set   Shell   Orbital            Exponent    Coefficient

                          1       1    1s                0.162492       0.000000
                                                         0.380389       0.241686
                                                         1.169596       0.320234

                          1       2    2s                0.162492       0.120425
                                                         0.380389       0.131001
                                                         1.169596      -0.000041

                          1       3    2px               0.162492       0.000000
                                                         0.380389       0.166903
                                                         1.169596       1.053568
                          1       3    2py               0.162492       0.000000
                                                         0.380389       0.166903
                                                         1.169596       1.053568
                          1       3    2pz               0.162492       0.000000
                                                         0.380389       0.166903
                                                         1.169596       1.053568

                          1       4    3px               0.162492       0.001278
                                                         0.380389       0.422682
                                                         1.169596       0.000775
                          1       4    3py               0.162492       0.001278
                                                         0.380389       0.422682
                                                         1.169596       0.000775
                          1       4    3pz               0.162492       0.001278
                                                         0.380389       0.422682
                                                         1.169596       0.000775

                          1       5    3dx2              0.162492      -0.037898
                                                         0.380389       0.380180
                                                         1.169596       0.208664
                          1       5    3dxy              0.162492      -0.065641
                                                         0.380389       0.658491
                                                         1.169596       0.361417
                          1       5    3dxz              0.162492      -0.065641
                                                         0.380389       0.658491
                                                         1.169596       0.361417
                          1       5    3dy2              0.162492      -0.037898
                                                         0.380389       0.380180
                                                         1.169596       0.208664
                          1       5    3dyz              0.162492      -0.065641
                                                         0.380389       0.658491
                                                         1.169596       0.361417
                          1       5    3dz2              0.162492      -0.037898
                                                         0.380389       0.380180
                                                         1.169596       0.208664

                          2       1    1s         

     AE Potential information for                                            ALL

       Description:                                       All-electron potential
                                          Krack, Parrinello, PCCP 2, 2105 (2000)

       Gaussian exponent of the core charge distribution:               8.154466
       Electronic configuration (s p d ...):                           4   4   0


 MOLECULE KIND INFORMATION


 All atoms are their own molecule, skipping detailed information


 TOTAL NUMBERS AND MAXIMUM NUMBERS

  Total number of            - Atomic kinds:                                   1
                             - Atoms:                                          2
                             - Shell sets:                                     4
                             - Shells:                                        12
                             - Primitive Cartesian functions:                 14
                             - Cartesian basis functions:                     30
                             - Spherical basis functions:                     28

  Maximum angular momentum of the orbital basis functions:                     2


 MODULE QUICKSTEP: ATOMIC COORDINATES IN ANGSTROM

   Atom Kind Element         X             Y             Z       Z(eff)     Mass
      1    1 O     8     15.603900     15.000000     15.000000   8.0000  15.9994
      2    1 O     8     14.396100     15.000000     15.000000   8.0000  15.9994



 SCF PARAMETERS         Density guess:                                    ATOMIC
                        --------------------------------------------------------
                        max_scf:                                             500
                        max_scf_history:                                       0
                        max_diis:                                              4
                        --------------------------------------------------------
                        eps_scf:                                        1.00E-06
                        eps_scf_history:                                0.00E+00
                        eps_diis:                                       1.00E-01
                        eps_eigval:                                     1.00E-05
                        --------------------------------------------------------
                        level_shift [a.u.]:                             0.000000
                        added MOs                                        20    0
                        --------------------------------------------------------
                        Mixing method:                            BROYDEN_MIXING
                                                charge density mixing in g-space
                        --------------------------------------------------------
                        No outer SCF

 PW_GRID| Information for grid number                                          1
 PW_GRID| Grid distributed over                                    24 processors
 PW_GRID| Real space group dimensions                                    24    1
 PW_GRID| the grid is blocked:                                                NO
 PW_GRID| Cutoff [a.u.]                                                    250.0
 PW_GRID| spherical cutoff:                                                   NO
 PW_GRID|   Bounds   1           -202     202                Points:         405
 PW_GRID|   Bounds   2           -202     202                Points:         405
 PW_GRID|   Bounds   3           -202     202                Points:         405
 PW_GRID| Volume element (a.u.^3)  0.2743E-02     Volume (a.u.^3)    182205.0337
 PW_GRID| Grid span                                                    FULLSPACE
 PW_GRID|   Distribution                         Average         Max         Min
 PW_GRID|   G-Vectors                          2767921.9     2768175     2767770
 PW_GRID|   G-Rays                                6834.4        6835        6834
 PW_GRID|   Real Space Points                  2767921.9     2788425     2624400

 PW_GRID| Information for grid number                                          2
 PW_GRID| Number of the reference grid                                         1
 PW_GRID| Grid distributed over                                    24 processors
 PW_GRID| Real space group dimensions                                    24    1
 PW_GRID| the grid is blocked:                                                NO
 PW_GRID| Cutoff [a.u.]                                                     83.3
 PW_GRID| spherical cutoff:                                                   NO
 PW_GRID|   Bounds   1           -120     119                Points:         240
 PW_GRID|   Bounds   2           -120     119                Points:         240
 PW_GRID|   Bounds   3           -120     119                Points:         240
 PW_GRID| Volume element (a.u.^3)  0.1318E-01     Volume (a.u.^3)    182205.0337
 PW_GRID| Grid span                                                    FULLSPACE
 PW_GRID|   Distribution                         Average         Max         Min
 PW_GRID|   G-Vectors                           576000.0      576240      575760
 PW_GRID|   G-Rays                                2400.0        2401        2399
 PW_GRID|   Real Space Points                   576000.0      576000      576000

 PW_GRID| Information for grid number                                          3
 PW_GRID| Number of the reference grid                                         1
 PW_GRID| Grid distributed over                                    24 processors
 PW_GRID| Real space group dimensions                                    24    1
 PW_GRID| the grid is blocked:                                                NO
 PW_GRID| Cutoff [a.u.]                                                     27.8
 PW_GRID| spherical cutoff:                                                   NO
 PW_GRID|   Bounds   1            -67      67                Points:         135
 PW_GRID|   Bounds   2            -67      67                Points:         135
 PW_GRID|   Bounds   3            -67      67                Points:         135
 PW_GRID| Volume element (a.u.^3)  0.7406E-01     Volume (a.u.^3)    182205.0337
 PW_GRID| Grid span                                                    FULLSPACE
 PW_GRID|   Distribution                         Average         Max         Min
 PW_GRID|   G-Vectors                           102515.6      102735      102330
 PW_GRID|   G-Rays                                 759.4         761         758
 PW_GRID|   Real Space Points                   102515.6      109350       91125

 PW_GRID| Information for grid number                                          4
 PW_GRID| Number of the reference grid                                         1
 PW_GRID| Grid distributed over                                    24 processors
 PW_GRID| Real space group dimensions                                    24    1
 PW_GRID| the grid is blocked:                                                NO
 PW_GRID| Cutoff [a.u.]                                                      9.3
 PW_GRID| spherical cutoff:                                                   NO
 PW_GRID|   Bounds   1            -40      39                Points:          80
 PW_GRID|   Bounds   2            -40      39                Points:          80
 PW_GRID|   Bounds   3            -40      39                Points:          80
 PW_GRID| Volume element (a.u.^3)  0.3559         Volume (a.u.^3)    182205.0337
 PW_GRID| Grid span                                                    FULLSPACE
 PW_GRID|   Distribution                         Average         Max         Min
 PW_GRID|   G-Vectors                            21333.3       21360       21280
 PW_GRID|   G-Rays                                 266.7         267         266
 PW_GRID|   Real Space Points                    21333.3       25600       19200

 POISSON| Solver                                                         WAVELET
 POISSON| Wavelet| Scaling function                                           40
 POISSON| Periodicity                                                       NONE

 RS_GRID| Information for grid number                                          1
 RS_GRID|   Bounds   1           -202     202                Points:         405
 RS_GRID|   Bounds   2           -202     202                Points:         405
 RS_GRID|   Bounds   3           -202     202                Points:         405
 RS_GRID| Real space distribution over                                  2 groups
 RS_GRID| Real space distribution along direction                              1
 RS_GRID| Border size                                                         30
 RS_GRID| Real space distribution over                                  3 groups
 RS_GRID| Real space distribution along direction                              2
 RS_GRID| Border size                                                         30
 RS_GRID| Real space distribution over                                  4 groups
 RS_GRID| Real space distribution along direction                              3
 RS_GRID| Border size                                                         30
 RS_GRID|   Distribution                         Average         Max         Min
 RS_GRID|   Planes                                 262.5         263         262
 RS_GRID|   Distribution                         Average         Max         Min
 RS_GRID|   Planes                                 195.0         195         195
 RS_GRID|   Distribution                         Average         Max         Min
 RS_GRID|   Planes                                 161.2         162         161

 RS_GRID| Information for grid number                                          2
 RS_GRID|   Bounds   1           -120     119                Points:         240
 RS_GRID|   Bounds   2           -120     119                Points:         240
 RS_GRID|   Bounds   3           -120     119                Points:         240
 RS_GRID| Real space distribution over                                  2 groups
 RS_GRID| Real space distribution along direction                              1
 RS_GRID| Border size                                                         32
 RS_GRID| Real space distribution over                                  3 groups
 RS_GRID| Real space distribution along direction                              2
 RS_GRID| Border size                                                         32
 RS_GRID| Real space distribution over                                  4 groups
 RS_GRID| Real space distribution along direction                              3
 RS_GRID| Border size                                                         32
 RS_GRID|   Distribution                         Average         Max         Min
 RS_GRID|   Planes                                 184.0         184         184
 RS_GRID|   Distribution                         Average         Max         Min
 RS_GRID|   Planes                                 144.0         144         144
 RS_GRID|   Distribution                         Average         Max         Min
 RS_GRID|   Planes                                 124.0         124         124

 RS_GRID| Information for grid number                                          3
 RS_GRID|   Bounds   1            -67      67                Points:         135
 RS_GRID|   Bounds   2            -67      67                Points:         135
 RS_GRID|   Bounds   3            -67      67                Points:         135
 RS_GRID| Real space fully replicated
 RS_GRID| Group size                                                           1

 RS_GRID| Information for grid number                                          4
 RS_GRID|   Bounds   1            -40      39                Points:          80
 RS_GRID|   Bounds   2            -40      39                Points:          80
 RS_GRID|   Bounds   3            -40      39                Points:          80
 RS_GRID| Real space fully replicated
 RS_GRID| Group size                                                           1

  HFX_INFO| Replica ID:                                                        1
  HFX_INFO| FRACTION:                                               0.2500000000
  HFX_INFO| Interaction Potential:                                       COULOMB
  HFX_INFO| EPS_SCHWARZ:                                                 1.0E-10
  HFX_INFO| EPS_SCHWARZ_FORCES                                           1.0E-08
  HFX_INFO| EPS_STORAGE_SCALING:                                         1.0E+00
  HFX_INFO| NBINS:                                                            64
  HFX_INFO| BLOCK_SIZE:                                                        1
  HFX_INFO| Number of periodic shells considered:                           NONE
  HFX_INFO| Number of periodic cells considered:                            NONE

 
 RI-RPA| using GPW style
 

 OVERLAP MATRIX CONDITION NUMBER
 1-Norm Condition Number (Estimate)
   CN : |A|*|A^-1|:  4.125E+000 *  1.287E+002   = 5.311E+002  Log(1-CN):  2.7252
 1-Norm and 2-Norm Condition Numbers using Diagonalization
   CN : |A|*|A^-1|:  4.125E+000 *  1.289E+002   = 5.317E+002  Log(1-CN):  2.7257
   CN : max/min ev:  3.541E+000 /  9.772E-003   = 3.623E+002  Log(2-CN):  2.5591

 Number of electrons:                                                         16
 Number of occupied orbitals:                                                  8
 Number of molecular orbitals:                                                28

 Number of orbital functions:                                                 28
 Number of independent orbital functions:                                     28

 Extrapolation method: initial_guess

 Atomic guess: The first density matrix is obtained in terms of atomic orbitals
               and electronic configurations assigned to each atomic kind

 Guess for atomic kind: O

 Electronic structure
    Total number of core electrons                                          0.00
    Total number of valence electrons                                       8.00
    Total number of electrons                                               8.00
    Multiplicity                                                   not specified
    S      2.00  2.00
    P      4.00


 *******************************************************************************
                  Iteration          Convergence                     Energy [au]
 *******************************************************************************
                          1        0.599527                     -73.375601368339
                          2        0.408940                     -73.402965239786
                          3        0.467422E-03                 -73.427671829740
                          4        0.397273E-04                 -73.427671891487
                          5        0.331032E-07                 -73.427671891704

 Energy components [Hartree]           Total Energy ::          -73.427671891704
                                        Band Energy ::          -39.525441932717
                                     Kinetic Energy ::           72.007128165258
                                   Potential Energy ::         -145.434800056962
                                      Virial (-V/T) ::            2.019727820879
                                        Core Energy ::         -102.018515532458
                                          XC Energy ::           -7.787812391279
                                     Coulomb Energy ::           36.378656032034

 Orbital energies  State     L     Occupation   Energy[a.u.]          Energy[eV]

                       1     0          2.000     -18.561766         -505.091352
                       2     0          2.000      -0.788492          -21.455956

                       1     1          4.000      -0.206231           -5.611839


 Total Electron Density at R=0:                                       192.964800
 Re-scaling the density matrix to get the right number of electrons
                  # Electrons              Trace(P)               Scaling factor
                           16                16.000                        1.000


 SCF WAVEFUNCTION OPTIMIZATION

  Step     Update method      Time    Convergence         Total energy    Change
  ------------------------------------------------------------------------------

  HFX_MEM_INFO| Est. max. program size before HFX [MiB]:                    2097
  HFX_MEM_INFO| Number of cart. primitive ERI's calculated:             20436113
  HFX_MEM_INFO| Number of sph. ERI's calculated:                          230495
  HFX_MEM_INFO| Number of sph. ERI's stored in-core:                      230495
  HFX_MEM_INFO| Number of sph. ERI's stored on disk:                           0
  HFX_MEM_INFO| Number of sph. ERI's calculated on the fly:                    0
  HFX_MEM_INFO| Total memory consumption ERI's RAM [MiB]:                      2
  HFX_MEM_INFO| Whereof max-vals [MiB]:                                        1
  HFX_MEM_INFO| Total compression factor ERI's RAM:                         1.12
  HFX_MEM_INFO| Total memory consumption ERI's disk [MiB]:                     0
  HFX_MEM_INFO| Total compression factor ERI's disk:                        0.00
  HFX_MEM_INFO| Size of density/Fock matrix [MiB]:                             0
  HFX_MEM_INFO| Size of buffers [MiB]:                                         0
  HFX_MEM_INFO| Est. max. program size after HFX  [MiB]:                    2582

     1 NoMix/Diag. 0.10E+00    6.1     0.83242945      -148.3397653699 -1.48E+02
     2 Broy./Diag. 0.10E+00    4.6     0.02989843      -148.4143727935 -7.46E-02
     3 Broy./Diag. 0.10E+00    4.7     0.07625037      -148.2982157535  1.16E-01
     4 Broy./Diag. 0.10E+00    4.7     0.01046095      -148.2255172595  7.27E-02
     5 Broy./Diag. 0.10E+00    4.7     0.00276264      -148.2031343881  2.24E-02
     6 Broy./Diag. 0.10E+00    4.9     0.00694008      -148.2359252367 -3.28E-02
     7 Broy./Diag. 0.10E+00    5.1     0.00267830      -148.2327805739  3.14E-03
     8 Broy./Diag. 0.10E+00    5.1     0.00130397      -148.2224932093  1.03E-02
     9 Broy./Diag. 0.10E+00    5.3     0.00306775      -148.2075215276  1.50E-02
    10 Broy./Diag. 0.10E+00    5.4     0.00020669      -148.1973476011  1.02E-02
    11 Broy./Diag. 0.10E+00    5.3     0.00112616      -148.2006735954 -3.33E-03
    12 Broy./Diag. 0.10E+00    5.3     0.00036105      -148.1986793239  1.99E-03
    13 Broy./Diag. 0.10E+00    5.3     0.00064364      -148.1948297905  3.85E-03
    14 Broy./Diag. 0.10E+00    5.3     0.00060372      -148.1913208430  3.51E-03
    15 Broy./Diag. 0.10E+00    5.2     0.00012502      -148.1897377339  1.58E-03
    16 Broy./Diag. 0.10E+00    5.3     0.00021103      -148.1904575164 -7.20E-04
    17 Broy./Diag. 0.10E+00    5.3     0.00044204      -148.1910766675 -6.19E-04
    18 Broy./Diag. 0.10E+00    5.3     0.00015843      -148.1902944231  7.82E-04
    19 Broy./Diag. 0.10E+00    5.4     0.00016392      -148.1898705801  4.24E-04
    20 Broy./Diag. 0.10E+00    5.3     0.00016485      -148.1893845201  4.86E-04
    21 Broy./Diag. 0.10E+00    5.4     0.00002672      -148.1889917193  3.93E-04
    22 Broy./Diag. 0.10E+00    5.5     0.00003821      -148.1889841890  7.53E-06
    23 Broy./Diag. 0.10E+00    5.5     0.00001901      -148.1888858150  9.84E-05
    24 Broy./Diag. 0.10E+00    5.3     0.00002809      -148.1887947804  9.10E-05
    25 Broy./Diag. 0.10E+00    5.3     0.00004257      -148.1886851063  1.10E-04
    26 Broy./Diag. 0.10E+00    5.3     0.00003702      -148.1887595635 -7.45E-05
    27 Broy./Diag. 0.10E+00    5.3     0.00002136      -148.1889301693 -1.71E-04
    28 Broy./Diag. 0.10E+00    5.4     0.00001454      -148.1890024893 -7.23E-05
    29 Broy./Diag. 0.10E+00    5.3     0.00001831      -148.1890008300  1.66E-06
    30 Broy./Diag. 0.10E+00    5.3     0.00000588      -148.1890253556 -2.45E-05
    31 Broy./Diag. 0.10E+00    5.3     0.00000466      -148.1890449786 -1.96E-05
    32 Broy./Diag. 0.10E+00    5.3     0.00002513      -148.1890253448  1.96E-05
    33 Broy./Diag. 0.10E+00    5.4     0.00000823      -148.1889841138  4.12E-05
    34 Broy./Diag. 0.10E+00    5.3     0.00001010      -148.1889761081  8.01E-06
    35 Broy./Diag. 0.10E+00    5.3     0.00001630      -148.1889793500 -3.24E-06
    36 Broy./Diag. 0.10E+00    5.3     0.00002365      -148.1889767242  2.63E-06
    37 Broy./Diag. 0.10E+00    5.3     0.00003869      -148.1889780941 -1.37E-06
    38 Broy./Diag. 0.10E+00    5.3     0.00006457      -148.1889788614 -7.67E-07
    39 Broy./Diag. 0.10E+00    5.5     0.00010757      -148.1889754631  3.40E-06
    40 Broy./Diag. 0.10E+00    5.5     0.00017915      -148.1889768433 -1.38E-06
    41 Broy./Diag. 0.10E+00    5.3     0.00029907      -148.1889762030  6.40E-07
    42 Broy./Diag. 0.10E+00    5.4     0.00049977      -148.1889765230 -3.20E-07
    43 Broy./Diag. 0.10E+00    5.3     0.00083506      -148.1889792833 -2.76E-06
    44 Broy./Diag. 0.10E+00    5.3     0.00139311      -148.1889846542 -5.37E-06
    45 Broy./Diag. 0.10E+00    5.4     0.00232554      -148.1889904160 -5.76E-06
    46 Broy./Diag. 0.10E+00    5.4     0.00387647      -148.1889961158 -5.70E-06
    47 Broy./Diag. 0.10E+00    5.3     0.00646509      -148.1889957514  3.64E-07
    48 Broy./Diag. 0.10E+00    5.4     0.01077391      -148.1889651122  3.06E-05
    49 Broy./Diag. 0.10E+00    5.3     0.01792934      -148.1889600017  5.11E-06
    50 Broy./Diag. 0.10E+00    5.3     0.02969491      -148.1889595890  4.13E-07
    51 Broy./Diag. 0.10E+00    5.3     0.04852236      -148.1890123759 -5.28E-05
    52 Broy./Diag. 0.10E+00    5.3     0.07641358      -148.1892047702 -1.92E-04
    53 Broy./Diag. 0.10E+00    5.5     0.10942136      -148.1896763871 -4.72E-04
    54 Broy./Diag. 0.10E+00    5.5     0.12541417      -148.1907373977 -1.06E-03
    55 Broy./Diag. 0.10E+00    5.4     0.19163252      -148.1928663001 -2.13E-03
    56 Broy./Diag. 0.10E+00    5.4     0.21251018      -148.1961784049 -3.31E-03
    57 Broy./Diag. 0.10E+00    5.4     0.17555328      -148.2001083010 -3.93E-03
    58 Broy./Diag. 0.10E+00    5.3     0.11834011      -148.2040171429 -3.91E-03
    59 Broy./Diag. 0.10E+00    5.4     0.08898646      -148.2071845279 -3.17E-03
    60 Broy./Diag. 0.10E+00    5.3     0.07402491      -148.2093261054 -2.14E-03
    61 Broy./Diag. 0.10E+00    5.3     0.05716069      -148.2105945750 -1.27E-03
    62 Broy./Diag. 0.10E+00    5.3     0.04255692      -148.2112478495 -6.53E-04
    63 Broy./Diag. 0.10E+00    5.3     0.03122363      -148.2113521840 -1.04E-04
    64 Broy./Diag. 0.10E+00    5.3     0.02375159      -148.2103278581  1.02E-03
    65 Broy./Diag. 0.10E+00    5.3     0.01881632      -148.2110996897 -7.72E-04
    66 Broy./Diag. 0.10E+00    5.3     0.01560503      -148.2120668819 -9.67E-04
    67 Broy./Diag. 0.10E+00    5.3     0.01615430      -148.2156491116 -3.58E-03
    68 Broy./Diag. 0.10E+00    5.4     0.04230782      -148.2876449190 -7.20E-02

 *** WARNING in pw/ps_wavelet_methods.F:238 :: Density non-zero on the ***
 *** edges of the unit cell: wrong results in WAVELET solver           ***

    69 Broy./Diag. 0.10E+00    5.5     0.09621165      -148.4639706529 -1.76E-01

 *** WARNING in pw/ps_wavelet_methods.F:238 :: Density non-zero on the ***
 *** edges of the unit cell: wrong results in WAVELET solver           ***

    70 Broy./Diag. 0.10E+00    5.5     0.11181040      -148.4321775522  3.18E-02
    71 Broy./Diag. 0.10E+00    5.3     0.08477055      -148.3002591775  1.32E-01
    72 Broy./Diag. 0.10E+00    5.4     0.09584909      -148.3432171556 -4.30E-02
    73 Broy./Diag. 0.10E+00    5.3     0.06257946      -148.3027313783  4.05E-02
    74 Broy./Diag. 0.10E+00    5.3     0.06162578      -148.2968670072  5.86E-03
    75 Broy./Diag. 0.10E+00    5.3     0.13901190      -148.3124919117 -1.56E-02
    76 Broy./Diag. 0.10E+00    5.3     0.12866092      -148.3379298421 -2.54E-02
    77 Broy./Diag. 0.10E+00    5.3     0.10300022      -148.3438452469 -5.92E-03
    78 Broy./Diag. 0.10E+00    5.3     0.08409008      -148.3619320762 -1.81E-02
    79 Broy./Diag. 0.10E+00    5.3     0.14721593      -148.2835802771  7.84E-02
    80 Broy./Diag. 0.10E+00    5.4     0.21414515      -148.2457147622  3.79E-02
    81 Broy./Diag. 0.10E+00    5.3     0.28241990      -148.1464135179  9.93E-02
    82 Broy./Diag. 0.10E+00    5.2     0.12524745      -148.1629364091 -1.65E-02
    83 Broy./Diag. 0.10E+00    5.2     0.03403467      -148.2451736909 -8.22E-02
    84 Broy./Diag. 0.10E+00    5.3     0.00851796      -148.2697231985 -2.45E-02
    85 Broy./Diag. 0.10E+00    5.4     0.02365642      -148.2834680106 -1.37E-02
    86 Broy./Diag. 0.10E+00    5.5     0.04778358      -148.3291232910 -4.57E-02
    87 Broy./Diag. 0.10E+00    5.5     0.10834205      -148.3320406760 -2.92E-03
    88 Broy./Diag. 0.10E+00    5.3     0.12964546      -148.3380201175 -5.98E-03
    89 Broy./Diag. 0.10E+00    5.3     0.25237243      -148.3374051624  6.15E-04
    90 Broy./Diag. 0.10E+00    5.3     0.18038697      -148.3531094331 -1.57E-02
    91 Broy./Diag. 0.10E+00    5.4     0.07357802      -148.3599457051 -6.84E-03
    92 Broy./Diag. 0.10E+00    5.3     0.05990159      -148.3579521207  1.99E-03
    93 Broy./Diag. 0.10E+00    5.3     0.02317173      -148.3123127382  4.56E-02
    94 Broy./Diag. 0.10E+00    5.3     0.11768124      -148.2549152048  5.74E-02
    95 Broy./Diag. 0.10E+00    5.3     0.14743588      -148.2343757425  2.05E-02
    96 Broy./Diag. 0.10E+00    5.3     0.15044833      -148.2251812458  9.19E-03
    97 Broy./Diag. 0.10E+00    5.2     0.16409852      -148.2071764963  1.80E-02
    98 Broy./Diag. 0.10E+00    5.2     0.10606779      -148.2114164578 -4.24E-03
    99 Broy./Diag. 0.10E+00    5.2     0.06579376      -148.2425240295 -3.11E-02
   100 Broy./Diag. 0.10E+00    5.2     0.04710891      -148.2608877861 -1.84E-02
   101 Broy./Diag. 0.10E+00    5.3     0.01529985      -148.3016404523 -4.08E-02
   102 Broy./Diag. 0.10E+00    5.3     0.00577431      -148.3197438427 -1.81E-02
   103 Broy./Diag. 0.10E+00    5.4     0.01104067      -148.3158994897  3.84E-03
   104 Broy./Diag. 0.10E+00    5.5     0.06411656      -148.3379940448 -2.21E-02
   105 Broy./Diag. 0.10E+00    5.4     0.12241339      -148.3519506087 -1.40E-02
   106 Broy./Diag. 0.10E+00    5.5     0.20992676      -148.3584406475 -6.49E-03
   107 Broy./Diag. 0.10E+00    5.3     0.18268226      -148.3547346516  3.71E-03
   108 Broy./Diag. 0.10E+00    5.3     0.12952124      -148.2746764563  8.01E-02
   109 Broy./Diag. 0.10E+00    5.3     0.17000132      -148.2672512674  7.43E-03
   110 Broy./Diag. 0.10E+00    5.3     0.15349161      -148.2808083995 -1.36E-02
   111 Broy./Diag. 0.10E+00    5.3     0.13009454      -148.2616939742  1.91E-02
   112 Broy./Diag. 0.10E+00    5.3     0.09620196      -148.2410616510  2.06E-02
   113 Broy./Diag. 0.10E+00    5.3     0.10718624      -148.2472535916 -6.19E-03
   114 Broy./Diag. 0.10E+00    5.3     0.10483037      -148.2491780024 -1.92E-03
   115 Broy./Diag. 0.10E+00    5.3     0.07835040      -148.2505217415 -1.34E-03
   116 Broy./Diag. 0.10E+00    5.3     0.11257329      -148.2530344093 -2.51E-03
   117 Broy./Diag. 0.10E+00    5.4     0.07918451      -148.2629644552 -9.93E-03
   118 Broy./Diag. 0.10E+00    5.3     0.04859044      -148.2680349518 -5.07E-03
   119 Broy./Diag. 0.10E+00    5.3     0.08045937      -148.2756174063 -7.58E-03
   120 Broy./Diag. 0.10E+00    5.4     0.13189242      -148.2757941163 -1.77E-04
   121 Broy./Diag. 0.10E+00    5.5     0.04509888      -148.2681718190  7.62E-03
   122 Broy./Diag. 0.10E+00    5.5     0.11266333      -148.2611483112  7.02E-03
   123 Broy./Diag. 0.10E+00    5.4     0.17926370      -148.2560998619  5.05E-03
   124 Broy./Diag. 0.10E+00    5.3     0.12636698      -148.2652306185 -9.13E-03
   125 Broy./Diag. 0.10E+00    5.3     0.03844748      -148.2532743224  1.20E-02
   126 Broy./Diag. 0.10E+00    5.3     0.00952020      -148.2503889581  2.89E-03
   127 Broy./Diag. 0.10E+00    5.3     0.01727417      -148.2222341156  2.82E-02
   128 Broy./Diag. 0.10E+00    5.3     0.02586675      -148.2121358361  1.01E-02
   129 Broy./Diag. 0.10E+00    5.3     0.02807383      -148.2097197942  2.42E-03
   130 Broy./Diag. 0.10E+00    5.2     0.01751447      -148.2120294570 -2.31E-03
   131 Broy./Diag. 0.10E+00    5.2     0.01337993      -148.2141781977 -2.15E-03
   132 Broy./Diag. 0.10E+00    5.3     0.01637070      -148.2111264697  3.05E-03
   133 Broy./Diag. 0.10E+00    5.2     0.00567089      -148.2136808208 -2.55E-03
   134 Broy./Diag. 0.10E+00    5.3     0.02065341      -148.2102644598  3.42E-03
   135 Broy./Diag. 0.10E+00    5.5     0.03369992      -148.2096782045  5.86E-04
   136 Broy./Diag. 0.10E+00    5.4     0.04716208      -148.2118182940 -2.14E-03
   137 Broy./Diag. 0.10E+00    5.4     0.10937012      -148.2077468138  4.07E-03
   138 Broy./Diag. 0.10E+00    5.3     0.15567962      -148.2072911487  4.56E-04
   139 Broy./Diag. 0.10E+00    5.4     0.18332746      -148.2098802732 -2.59E-03
   140 Broy./Diag. 0.10E+00    5.4     0.16952873      -148.2135789612 -3.70E-03
   141 Broy./Diag. 0.10E+00    5.3     0.18867578      -148.2173446617 -3.77E-03
   142 Broy./Diag. 0.10E+00    5.3     0.15801431      -148.2176257222 -2.81E-04
   143 Broy./Diag. 0.10E+00    5.4     0.11675269      -148.2208248676 -3.20E-03
   144 Broy./Diag. 0.10E+00    5.3     0.08137314      -148.2248853434 -4.06E-03
   145 Broy./Diag. 0.10E+00    5.3     0.06428156      -148.2306101884 -5.72E-03
   146 Broy./Diag. 0.10E+00    5.3     0.04708346      -148.2348114094 -4.20E-03
   147 Broy./Diag. 0.10E+00    5.2     0.05755509      -148.2373119978 -2.50E-03
   148 Broy./Diag. 0.10E+00    5.2     0.07638754      -148.2429696355 -5.66E-03
   149 Broy./Diag. 0.10E+00    5.2     0.10855259      -148.2500953130 -7.13E-03
   150 Broy./Diag. 0.10E+00    5.2     0.12230033      -148.2586807476 -8.59E-03
   151 Broy./Diag. 0.10E+00    5.3     0.09671771      -148.2666040596 -7.92E-03
   152 Broy./Diag. 0.10E+00    5.4     0.04358286      -148.2775547431 -1.10E-02
   153 Broy./Diag. 0.10E+00    5.5     0.01578402      -148.2742536282  3.30E-03
   154 Broy./Diag. 0.10E+00    5.5     0.01622142      -148.2576483973  1.66E-02
   155 Broy./Diag. 0.10E+00    5.4     0.01713760      -148.2375688377  2.01E-02
   156 Broy./Diag. 0.10E+00    5.3     0.01106943      -148.2246550392  1.29E-02
   157 Broy./Diag. 0.10E+00    5.3     0.00295240      -148.2159445684  8.71E-03
   158 Broy./Diag. 0.10E+00    5.3     0.03042566      -148.2010009814  1.49E-02
   159 Broy./Diag. 0.10E+00    5.3     0.03469135      -148.1952688437  5.73E-03
   160 Broy./Diag. 0.10E+00    5.3     0.02582323      -148.1973372860 -2.07E-03
   161 Broy./Diag. 0.10E+00    5.3     0.00600559      -148.1986978729 -1.36E-03
   162 Broy./Diag. 0.10E+00    5.3     0.00907533      -148.1963752980  2.32E-03
   163 Broy./Diag. 0.10E+00    5.3     0.00210370      -148.1941093159  2.27E-03
   164 Broy./Diag. 0.10E+00    5.4     0.01163735      -148.1861016714  8.01E-03
   165 Broy./Diag. 0.10E+00    5.3     0.00517043      -148.1835558629  2.55E-03
   166 Broy./Diag. 0.10E+00    5.3     0.00289839      -148.1826148211  9.41E-04
   167 Broy./Diag. 0.10E+00    5.5     0.00260164      -148.1832292075 -6.14E-04
   168 Broy./Diag. 0.10E+00    5.5     0.00482588      -148.1849055917 -1.68E-03
   169 Broy./Diag. 0.10E+00    5.5     0.00287480      -148.1864044092 -1.50E-03
   170 Broy./Diag. 0.10E+00    5.4     0.00163083      -148.1868254878 -4.21E-04
   171 Broy./Diag. 0.10E+00    5.4     0.00210196      -148.1866654645  1.60E-04
   172 Broy./Diag. 0.10E+00    5.3     0.00076625      -148.1879561397 -1.29E-03
   173 Broy./Diag. 0.10E+00    5.3     0.00026805      -148.1895904900 -1.63E-03
   174 Broy./Diag. 0.10E+00    5.4     0.00137942      -148.1890804325  5.10E-04
   175 Broy./Diag. 0.10E+00    5.3     0.00103108      -148.1894197636 -3.39E-04
   176 Broy./Diag. 0.10E+00    5.3     0.00013804      -148.1898223078 -4.03E-04
   177 Broy./Diag. 0.10E+00    5.3     0.00055166      -148.1895333665  2.89E-04
   178 Broy./Diag. 0.10E+00    5.3     0.00040772      -148.1889373828  5.96E-04
   179 Broy./Diag. 0.10E+00    5.3     0.00031362      -148.1889305531  6.83E-06
   180 Broy./Diag. 0.10E+00    5.3     0.00018776      -148.1891309655 -2.00E-04
   181 Broy./Diag. 0.10E+00    5.3     0.00012917      -148.1893157441 -1.85E-04
   182 Broy./Diag. 0.10E+00    5.4     0.00012803      -148.1893195116 -3.77E-06
   183 Broy./Diag. 0.10E+00    5.5     0.00002455      -148.1892155126  1.04E-04
   184 Broy./Diag. 0.10E+00    5.5     0.00004011      -148.1891242065  9.13E-05
   185 Broy./Diag. 0.10E+00    5.4     0.00004414      -148.1890961509  2.81E-05
   186 Broy./Diag. 0.10E+00    5.3     0.00004602      -148.1890796258  1.65E-05
   187 Broy./Diag. 0.10E+00    5.4     0.00006526      -148.1890693440  1.03E-05
   188 Broy./Diag. 0.10E+00    5.3     0.00001547      -148.1890620424  7.30E-06
   189 Broy./Diag. 0.10E+00    5.4     0.00001049      -148.1890436233  1.84E-05
   190 Broy./Diag. 0.10E+00    5.3     0.00004039      -148.1890407592  2.86E-06
   191 Broy./Diag. 0.10E+00    5.3     0.00001868      -148.1890344033  6.36E-06
   192 Broy./Diag. 0.10E+00    5.3     0.00002790      -148.1890278319  6.57E-06
   193 Broy./Diag. 0.10E+00    5.3     0.00008386      -148.1890044485  2.34E-05
   194 Broy./Diag. 0.10E+00    5.3     0.00004815      -148.1889937641  1.07E-05
   195 Broy./Diag. 0.10E+00    5.3     0.00001139      -148.1889924734  1.29E-06
   196 Broy./Diag. 0.10E+00    5.3     0.00001262      -148.1889911827  1.29E-06
   197 Broy./Diag. 0.10E+00    5.3     0.00000493      -148.1889895925  1.59E-06
   198 Broy./Diag. 0.10E+00    5.4     0.00005518      -148.1889873056  2.29E-06
   199 Broy./Diag. 0.10E+00    5.4     0.00003494      -148.1889880280 -7.22E-07
   200 Broy./Diag. 0.10E+00    5.5     0.00001330      -148.1889893479 -1.32E-06
   201 Broy./Diag. 0.10E+00    5.5     0.00000879      -148.1889894020 -5.41E-08
   202 Broy./Diag. 0.10E+00    5.4     0.00002953      -148.1889874161  1.99E-06
   203 Broy./Diag. 0.10E+00    5.3     0.00002587      -148.1889844002  3.02E-06
   204 Broy./Diag. 0.10E+00    5.3     0.00002662      -148.1889822996  2.10E-06
   205 Broy./Diag. 0.10E+00    5.3     0.00001409      -148.1889805979  1.70E-06
   206 Broy./Diag. 0.10E+00    5.3     0.00000759      -148.1889785346  2.06E-06
   207 Broy./Diag. 0.10E+00    5.3     0.00000338      -148.1889768121  1.72E-06
   208 Broy./Diag. 0.10E+00    5.3     0.00000302      -148.1889761846  6.28E-07
   209 Broy./Diag. 0.10E+00    5.3     0.00002745      -148.1889781915 -2.01E-06
   210 Broy./Diag. 0.10E+00    5.3     0.00002461      -148.1889794187 -1.23E-06
   211 Broy./Diag. 0.10E+00    5.3     0.00001639      -148.1889794353 -1.66E-08
   212 Broy./Diag. 0.10E+00    5.4     0.00001820      -148.1889796331 -1.98E-07
   213 Broy./Diag. 0.10E+00    5.3     0.00000339      -148.1889794701  1.63E-07
   214 Broy./Diag. 0.10E+00    5.3     0.00000120      -148.1889797000 -2.30E-07
   215 Broy./Diag. 0.10E+00    5.3     0.00000654      -148.1889796826  1.74E-08
   216 Broy./Diag. 0.10E+00    5.5     0.00001430      -148.1889794664  2.16E-07
   217 Broy./Diag. 0.10E+00    5.4     0.00002040      -148.1889795556 -8.92E-08
   218 Broy./Diag. 0.10E+00    5.4     0.00002651      -148.1889798875 -3.32E-07
   219 Broy./Diag. 0.10E+00    5.3     0.00004604      -148.1889801226 -2.35E-07
   220 Broy./Diag. 0.10E+00    5.3     0.00008629      -148.1889799912  1.31E-07
   221 Broy./Diag. 0.10E+00    5.3     0.00013020      -148.1889793618  6.29E-07
   222 Broy./Diag. 0.10E+00    5.3     0.00023832      -148.1889784984  8.63E-07
   223 Broy./Diag. 0.10E+00    5.3     0.00042017      -148.1889776882  8.10E-07
   224 Broy./Diag. 0.10E+00    5.3     0.00074406      -148.1889774044  2.84E-07
   225 Broy./Diag. 0.10E+00    5.3     0.00132570      -148.1889767346  6.70E-07
   226 Broy./Diag. 0.10E+00    5.3     0.00227972      -148.1889760168  7.18E-07
   227 Broy./Diag. 0.10E+00    5.4     0.00359967      -148.1889854355 -9.42E-06
   228 Broy./Diag. 0.10E+00    5.3     0.00578928      -148.1890079701 -2.25E-05
   229 Broy./Diag. 0.10E+00    5.3     0.00952716      -148.1890312851 -2.33E-05
   230 Broy./Diag. 0.10E+00    5.4     0.01531849      -148.1890397821 -8.50E-06
   231 Broy./Diag. 0.10E+00    5.5     0.02495823      -148.1890399085 -1.26E-07
   232 Broy./Diag. 0.10E+00    5.4     0.04006682      -148.1890775616 -3.77E-05
   233 Broy./Diag. 0.10E+00    5.4     0.06085021      -148.1892136439 -1.36E-04
   234 Broy./Diag. 0.10E+00    5.4     0.08726828      -148.1895886678 -3.75E-04
   235 Broy./Diag. 0.10E+00    5.4     0.15158745      -148.1905306082 -9.42E-04
   236 Broy./Diag. 0.10E+00    5.4     0.20854023      -148.1925085181 -1.98E-03
   237 Broy./Diag. 0.10E+00    5.3     0.20860852      -148.1957296202 -3.22E-03
   238 Broy./Diag. 0.10E+00    5.3     0.15352348      -148.1997149383 -3.99E-03
   239 Broy./Diag. 0.10E+00    5.3     0.12636524      -148.2036725884 -3.96E-03
   240 Broy./Diag. 0.10E+00    5.3     0.11002552      -148.2069798633 -3.31E-03
   241 Broy./Diag. 0.10E+00    5.3     0.08549290      -148.2092434570 -2.26E-03
   242 Broy./Diag. 0.10E+00    5.3     0.06269786      -148.2105912677 -1.35E-03
   243 Broy./Diag. 0.10E+00    5.3     0.04435530      -148.2112746653 -6.83E-04
   244 Broy./Diag. 0.10E+00    5.4     0.02857848      -148.2115402470 -2.66E-04
   245 Broy./Diag. 0.10E+00    5.3     0.00606158      -148.2135519696 -2.01E-03
   246 Broy./Diag. 0.10E+00    5.4     0.02094596      -148.2066556923  6.90E-03
   247 Broy./Diag. 0.10E+00    5.4     0.06596796      -148.2268552370 -2.02E-02
   248 Broy./Diag. 0.10E+00    5.5     0.12839740      -148.2707439636 -4.39E-02

 *** WARNING in pw/ps_wavelet_methods.F:238 :: Density non-zero on the ***
 *** edges of the unit cell: wrong results in WAVELET solver           ***

   249 Broy./Diag. 0.10E+00    5.4     0.15790099      -148.3280327519 -5.73E-02

 *** WARNING in pw/ps_wavelet_methods.F:238 :: Density non-zero on the ***
 *** edges of the unit cell: wrong results in WAVELET solver           ***

   250 Broy./Diag. 0.10E+00    5.4     0.16460425      -148.3666999374 -3.87E-02

 *** WARNING in pw/ps_wavelet_methods.F:238 :: Density non-zero on the ***
 *** edges of the unit cell: wrong results in WAVELET solver           ***

   251 Broy./Diag. 0.10E+00    5.3     0.11714989      -148.4034982209 -3.68E-02

 *** WARNING in pw/ps_wavelet_methods.F:238 :: Density non-zero on the ***
 *** edges of the unit cell: wrong results in WAVELET solver           ***

   252 Broy./Diag. 0.10E+00    5.3     0.06286541      -148.4447406747 -4.12E-02

 *** WARNING in pw/ps_wavelet_methods.F:238 :: Density non-zero on the ***
 *** edges of the unit cell: wrong results in WAVELET solver           ***

   253 Broy./Diag. 0.10E+00    5.3     0.13086326      -148.3859752077  5.88E-02
   254 Broy./Diag. 0.10E+00    5.3     0.11434943      -148.1101297320  2.76E-01
   255 Broy./Diag. 0.10E+00    5.3     0.16362272      -147.9725777985  1.38E-01
   256 Broy./Diag. 0.10E+00    5.3     0.15053178      -148.0699536665 -9.74E-02
   257 Broy./Diag. 0.10E+00    5.2     0.13703790      -148.3142420040 -2.44E-01

 *** WARNING in pw/ps_wavelet_methods.F:238 :: Density non-zero on the ***
 *** edges of the unit cell: wrong results in WAVELET solver           ***

   258 Broy./Diag. 0.10E+00    5.4     0.08630406      -148.8299755184 -5.16E-01

 *** WARNING in pw/ps_wavelet_methods.F:238 :: Density non-zero on the ***
 *** edges of the unit cell: wrong results in WAVELET solver           ***

   259 Broy./Diag. 0.10E+00    5.3     0.23678745      -148.7872845525  4.27E-02

 *** WARNING in pw/ps_wavelet_methods.F:238 :: Density non-zero on the ***
 *** edges of the unit cell: wrong results in WAVELET solver           ***

   260 Broy./Diag. 0.10E+00    5.3     0.05100245      -148.3429665179  4.44E-01

 *** WARNING in pw/ps_wavelet_methods.F:238 :: Density non-zero on the ***
 *** edges of the unit cell: wrong results in WAVELET solver           ***

   261 Broy./Diag. 0.10E+00    5.5     0.02741160      -148.2333566043  1.10E-01

 *** WARNING in pw/ps_wavelet_methods.F:238 :: Density non-zero on the ***
 *** edges of the unit cell: wrong results in WAVELET solver           ***

   262 Broy./Diag. 0.10E+00    5.4     0.02264258      -148.1385770406  9.48E-02

 *** WARNING in pw/ps_wavelet_methods.F:238 :: Density non-zero on the ***
 *** edges of the unit cell: wrong results in WAVELET solver           ***

   263 Broy./Diag. 0.10E+00    5.4     0.00478790      -148.1468102888 -8.23E-03

 *** WARNING in pw/ps_wavelet_methods.F:238 :: Density non-zero on the ***
 *** edges of the unit cell: wrong results in WAVELET solver           ***

   264 Broy./Diag. 0.10E+00    5.4     0.02632694      -148.1397373868  7.07E-03

 *** WARNING in pw/ps_wavelet_methods.F:238 :: Density non-zero on the ***
 *** edges of the unit cell: wrong results in WAVELET solver           ***

   265 Broy./Diag. 0.10E+00    5.3     0.08689707      -148.1130148875  2.67E-02

 *** WARNING in pw/ps_wavelet_methods.F:238 :: Density non-zero on the ***
 *** edges of the unit cell: wrong results in WAVELET solver           ***

   266 Broy./Diag. 0.10E+00    5.3     0.18074987      -148.1850852920 -7.21E-02

 *** WARNING in pw/ps_wavelet_methods.F:238 :: Density non-zero on the ***
 *** edges of the unit cell: wrong results in WAVELET solver           ***

   267 Broy./Diag. 0.10E+00    5.3     0.16566479      -148.3285819866 -1.43E-01

 *** WARNING in pw/ps_wavelet_methods.F:238 :: Density non-zero on the ***
 *** edges of the unit cell: wrong results in WAVELET solver           ***

   268 Broy./Diag. 0.10E+00    5.3     0.09732202      -148.4065751713 -7.80E-02

 *** WARNING in pw/ps_wavelet_methods.F:238 :: Density non-zero on the ***
 *** edges of the unit cell: wrong results in WAVELET solver           ***

   269 Broy./Diag. 0.10E+00    5.3     0.19478496      -148.3914305926  1.51E-02

 *** WARNING in pw/ps_wavelet_methods.F:238 :: Density non-zero on the ***
 *** edges of the unit cell: wrong results in WAVELET solver           ***

   270 Broy./Diag. 0.10E+00    5.3     0.36988304      -148.4811974593 -8.98E-02

 *** WARNING in pw/ps_wavelet_methods.F:238 :: Density non-zero on the ***
 *** edges of the unit cell: wrong results in WAVELET solver           ***

   271 Broy./Diag. 0.10E+00    5.3     0.17224891      -148.5311642246 -5.00E-02

 *** WARNING in pw/ps_wavelet_methods.F:238 :: Density non-zero on the ***
 *** edges of the unit cell: wrong results in WAVELET solver           ***

   272 Broy./Diag. 0.10E+00    5.3     0.02744332      -148.3828113097  1.48E-01

 *** WARNING in pw/ps_wavelet_methods.F:238 :: Density non-zero on the ***
 *** edges of the unit cell: wrong results in WAVELET solver           ***

   273 Broy./Diag. 0.10E+00    5.3     0.09249858      -148.2802871898  1.03E-01

 *** WARNING in pw/ps_wavelet_methods.F:238 :: Density non-zero on the ***
 *** edges of the unit cell: wrong results in WAVELET solver           ***

   274 Broy./Diag. 0.10E+00    5.3     0.12704582      -148.2882393271 -7.95E-03

 *** WARNING in pw/ps_wavelet_methods.F:238 :: Density non-zero on the ***
 *** edges of the unit cell: wrong results in WAVELET solver           ***

   275 Broy./Diag. 0.10E+00    5.4     0.16592400      -148.2696345937  1.86E-02

 *** WARNING in pw/ps_wavelet_methods.F:238 :: Density non-zero on the ***
 *** edges of the unit cell: wrong results in WAVELET solver           ***

   276 Broy./Diag. 0.10E+00    5.4     0.17030316      -148.3242864382 -5.47E-02

 *** WARNING in pw/ps_wavelet_methods.F:238 :: Density non-zero on the ***
 *** edges of the unit cell: wrong results in WAVELET solver           ***

   277 Broy./Diag. 0.10E+00    5.4     0.23061212      -148.2645119091  5.98E-02

 *** WARNING in pw/ps_wavelet_methods.F:238 :: Density non-zero on the ***
 *** edges of the unit cell: wrong results in WAVELET solver           ***

   278 Broy./Diag. 0.10E+00    5.5     0.13076922      -148.2524269556  1.21E-02

 *** WARNING in pw/ps_wavelet_methods.F:238 :: Density non-zero on the ***
 *** edges of the unit cell: wrong results in WAVELET solver           ***

   279 Broy./Diag. 0.10E+00    5.4     0.03298556      -148.2272768656  2.52E-02

 *** WARNING in pw/ps_wavelet_methods.F:238 :: Density non-zero on the ***
 *** edges of the unit cell: wrong results in WAVELET solver           ***

   280 Broy./Diag. 0.10E+00    5.3     0.07377195      -148.2235046753  3.77E-03

 *** WARNING in pw/ps_wavelet_methods.F:238 :: Density non-zero on the ***
 *** edges of the unit cell: wrong results in WAVELET solver           ***

   281 Broy./Diag. 0.10E+00    5.3     0.08659024      -148.2105819410  1.29E-02

 *** WARNING in pw/ps_wavelet_methods.F:238 :: Density non-zero on the ***
 *** edges of the unit cell: wrong results in WAVELET solver           ***

   282 Broy./Diag. 0.10E+00    5.4     0.11879553      -148.2073985092  3.18E-03

 *** WARNING in pw/ps_wavelet_methods.F:238 :: Density non-zero on the ***
 *** edges of the unit cell: wrong results in WAVELET solver           ***

   283 Broy./Diag. 0.10E+00    5.3     0.15715270      -148.2087126503 -1.31E-03

 *** WARNING in pw/ps_wavelet_methods.F:238 :: Density non-zero on the ***
 *** edges of the unit cell: wrong results in WAVELET solver           ***

   284 Broy./Diag. 0.10E+00    5.3     0.16356581      -148.2065679576  2.14E-03

 *** WARNING in pw/ps_wavelet_methods.F:238 :: Density non-zero on the ***
 *** edges of the unit cell: wrong results in WAVELET solver           ***

   285 Broy./Diag. 0.10E+00    5.2     0.08228999      -148.2188269775 -1.23E-02

 *** WARNING in pw/ps_wavelet_methods.F:238 :: Density non-zero on the ***
 *** edges of the unit cell: wrong results in WAVELET solver           ***

   286 Broy./Diag. 0.10E+00    5.2     0.10407054      -148.2133621271  5.46E-03

 *** WARNING in pw/ps_wavelet_methods.F:238 :: Density non-zero on the ***
 *** edges of the unit cell: wrong results in WAVELET solver           ***

   287 Broy./Diag. 0.10E+00    5.4     0.22099695      -148.2049327284  8.43E-03

 *** WARNING in pw/ps_wavelet_methods.F:238 :: Density non-zero on the ***
 *** edges of the unit cell: wrong results in WAVELET solver           ***

   288 Broy./Diag. 0.10E+00    5.3     0.19851100      -148.2061543676 -1.22E-03

 *** WARNING in pw/ps_wavelet_methods.F:238 :: Density non-zero on the ***
 *** edges of the unit cell: wrong results in WAVELET solver           ***

   289 Broy./Diag. 0.10E+00    5.3     0.11415684      -148.2194982075 -1.33E-02

 *** WARNING in pw/ps_wavelet_methods.F:238 :: Density non-zero on the ***
 *** edges of the unit cell: wrong results in WAVELET solver           ***

   290 Broy./Diag. 0.10E+00    5.3     0.07763084      -148.2368468570 -1.73E-02

 *** WARNING in pw/ps_wavelet_methods.F:238 :: Density non-zero on the ***
 *** edges of the unit cell: wrong results in WAVELET solver           ***

   291 Broy./Diag. 0.10E+00    5.6     0.03764803      -148.2487778987 -1.19E-02

 *** WARNING in pw/ps_wavelet_methods.F:238 :: Density non-zero on the ***
 *** edges of the unit cell: wrong results in WAVELET solver           ***

   292 Broy./Diag. 0.10E+00    5.5     0.03496087      -148.2614994543 -1.27E-02

 *** WARNING in pw/ps_wavelet_methods.F:238 :: Density non-zero on the ***
 *** edges of the unit cell: wrong results in WAVELET solver           ***

   293 Broy./Diag. 0.10E+00    5.5     0.08984416      -148.2816635671 -2.02E-02

 *** WARNING in pw/ps_wavelet_methods.F:238 :: Density non-zero on the ***
 *** edges of the unit cell: wrong results in WAVELET solver           ***

   294 Broy./Diag. 0.10E+00    5.3     0.22951502      -148.2682409465  1.34E-02

 *** WARNING in pw/ps_wavelet_methods.F:238 :: Density non-zero on the ***
 *** edges of the unit cell: wrong results in WAVELET solver           ***

   295 Broy./Diag. 0.10E+00    5.4     0.31554156      -148.2728956411 -4.65E-03

 *** WARNING in pw/ps_wavelet_methods.F:238 :: Density non-zero on the ***
 *** edges of the unit cell: wrong results in WAVELET solver           ***

   296 Broy./Diag. 0.10E+00    5.3     0.20206882      -148.2809410057 -8.05E-03

 *** WARNING in pw/ps_wavelet_methods.F:238 :: Density non-zero on the ***
 *** edges of the unit cell: wrong results in WAVELET solver           ***

   297 Broy./Diag. 0.10E+00    5.3     0.02802516      -148.2676779449  1.33E-02

 *** WARNING in pw/ps_wavelet_methods.F:238 :: Density non-zero on the ***
 *** edges of the unit cell: wrong results in WAVELET solver           ***

   298 Broy./Diag. 0.10E+00    5.3     0.14444781      -148.2313189349  3.64E-02

 *** WARNING in pw/ps_wavelet_methods.F:238 :: Density non-zero on the ***
 *** edges of the unit cell: wrong results in WAVELET solver           ***

   299 Broy./Diag. 0.10E+00    5.3     0.29859375      -148.2052544459  2.61E-02

 *** WARNING in pw/ps_wavelet_methods.F:238 :: Density non-zero on the ***
 *** edges of the unit cell: wrong results in WAVELET solver           ***

   300 Broy./Diag. 0.10E+00    5.3     0.26714768      -148.1981974203  7.06E-03

 *** WARNING in pw/ps_wavelet_methods.F:238 :: Density non-zero on the ***
 *** edges of the unit cell: wrong results in WAVELET solver           ***

   301 Broy./Diag. 0.10E+00    5.3     0.14502937      -148.2334629126 -3.53E-02

 *** WARNING in pw/ps_wavelet_methods.F:238 :: Density non-zero on the ***
[...]
   418 Broy./Diag. 0.10E+00    5.3     0.01412914      -148.2355495522 -4.38E-03
   419 Broy./Diag. 0.10E+00    5.3     0.00469513      -148.2346021740  9.47E-04
   420 Broy./Diag. 0.10E+00    5.3     0.08196875      -148.2284112234  6.19E-03
   421 Broy./Diag. 0.10E+00    5.3     0.04143138      -148.2252560564  3.16E-03
   422 Broy./Diag. 0.10E+00    5.3     0.01021776      -148.2167467226  8.51E-03
   423 Broy./Diag. 0.10E+00    5.4     0.01162741      -148.2127980611  3.95E-03
   424 Broy./Diag. 0.10E+00    5.3     0.01988969      -148.2061503302  6.65E-03
   425 Broy./Diag. 0.10E+00    5.3     0.00473650      -148.2029289389  3.22E-03
   426 Broy./Diag. 0.10E+00    5.5     0.01204221      -148.2013778180  1.55E-03
   427 Broy./Diag. 0.10E+00    5.5     0.00099243      -148.1981404073  3.24E-03
   428 Broy./Diag. 0.10E+00    5.5     0.00262966      -148.1940338629  4.11E-03
   429 Broy./Diag. 0.10E+00    5.4     0.00172390      -148.1913334997  2.70E-03
   430 Broy./Diag. 0.10E+00    5.3     0.00300989      -148.1889348623  2.40E-03
   431 Broy./Diag. 0.10E+00    5.3     0.00250735      -148.1869003836  2.03E-03
   432 Broy./Diag. 0.10E+00    5.3     0.00040944      -148.1867022413  1.98E-04
   433 Broy./Diag. 0.10E+00    5.3     0.00069212      -148.1864423894  2.60E-04
   434 Broy./Diag. 0.10E+00    5.3     0.00205701      -148.1862749764  1.67E-04
   435 Broy./Diag. 0.10E+00    5.3     0.00102673      -148.1872280418 -9.53E-04
   436 Broy./Diag. 0.10E+00    5.3     0.00078924      -148.1878357537 -6.08E-04
   437 Broy./Diag. 0.10E+00    5.3     0.00140807      -148.1880642088 -2.28E-04
   438 Broy./Diag. 0.10E+00    5.3     0.00044347      -148.1884574325 -3.93E-04
   439 Broy./Diag. 0.10E+00    5.3     0.00021521      -148.1888841630 -4.27E-04
   440 Broy./Diag. 0.10E+00    5.3     0.00090943      -148.1893006779 -4.17E-04
   441 Broy./Diag. 0.10E+00    5.4     0.00029084      -148.1894193518 -1.19E-04
   442 Broy./Diag. 0.10E+00    5.4     0.00072509      -148.1894631806 -4.38E-05
   443 Broy./Diag. 0.10E+00    5.5     0.00019534      -148.1894947402 -3.16E-05
   444 Broy./Diag. 0.10E+00    5.4     0.00039546      -148.1893649163  1.30E-04
   445 Broy./Diag. 0.10E+00    5.3     0.00036270      -148.1891632709  2.02E-04
   446 Broy./Diag. 0.10E+00    5.3     0.00048383      -148.1890685548  9.47E-05
   447 Broy./Diag. 0.10E+00    5.3     0.00010916      -148.1890158454  5.27E-05
   448 Broy./Diag. 0.10E+00    5.3     0.00014678      -148.1890345456 -1.87E-05
   449 Broy./Diag. 0.10E+00    5.3     0.00005588      -148.1890463860 -1.18E-05
   450 Broy./Diag. 0.10E+00    5.4     0.00011771      -148.1890214242  2.50E-05
   451 Broy./Diag. 0.10E+00    5.3     0.00003826      -148.1890119590  9.47E-06
   452 Broy./Diag. 0.10E+00    5.3     0.00004832      -148.1890207082 -8.75E-06
   453 Broy./Diag. 0.10E+00    5.3     0.00004255      -148.1890122999  8.41E-06
   454 Broy./Diag. 0.10E+00    5.2     0.00002986      -148.1890103597  1.94E-06
   455 Broy./Diag. 0.10E+00    5.2     0.00005175      -148.1890081622  2.20E-06
   456 Broy./Diag. 0.10E+00    5.3     0.00003155      -148.1889938561  1.43E-05
   457 Broy./Diag. 0.10E+00    5.2     0.00001160      -148.1889822233  1.16E-05
   458 Broy./Diag. 0.10E+00    5.3     0.00006115      -148.1889730244  9.20E-06
   459 Broy./Diag. 0.10E+00    5.3     0.00004759      -148.1889628545  1.02E-05
   460 Broy./Diag. 0.10E+00    5.5     0.00003742      -148.1889514106  1.14E-05
   461 Broy./Diag. 0.10E+00    5.5     0.00000527      -148.1889536463 -2.24E-06
   462 Broy./Diag. 0.10E+00    5.4     0.00002275      -148.1889579852 -4.34E-06
   463 Broy./Diag. 0.10E+00    5.4     0.00001593      -148.1889599054 -1.92E-06
   464 Broy./Diag. 0.10E+00    5.3     0.00001613      -148.1889643975 -4.49E-06
   465 Broy./Diag. 0.10E+00    5.3     0.00000973      -148.1889691162 -4.72E-06
   466 Broy./Diag. 0.10E+00    5.5     0.00002475      -148.1889717880 -2.67E-06
   467 Broy./Diag. 0.10E+00    5.3     0.00002410      -148.1889730968 -1.31E-06
   468 Broy./Diag. 0.10E+00    5.3     0.00001963      -148.1889734686 -3.72E-07
   469 Broy./Diag. 0.10E+00    5.3     0.00000731      -148.1889770052 -3.54E-06
   470 Broy./Diag. 0.10E+00    5.3     0.00001768      -148.1889784511 -1.45E-06
   471 Broy./Diag. 0.10E+00    5.3     0.00001965      -148.1889783607  9.03E-08
   472 Broy./Diag. 0.10E+00    5.2     0.00001242      -148.1889767452  1.62E-06
   473 Broy./Diag. 0.10E+00    5.2     0.00000499      -148.1889783790 -1.63E-06
   474 Broy./Diag. 0.10E+00    5.3     0.00001709      -148.1889794686 -1.09E-06
   475 Broy./Diag. 0.10E+00    5.4     0.00002358      -148.1889791984  2.70E-07
   476 Broy./Diag. 0.10E+00    5.4     0.00001894      -148.1889782631  9.35E-07
   477 Broy./Diag. 0.10E+00    5.5     0.00000290      -148.1889768854  1.38E-06
   478 Broy./Diag. 0.10E+00    5.4     0.00000498      -148.1889769318 -4.64E-08
   479 Broy./Diag. 0.10E+00    5.4     0.00002127      -148.1889783787 -1.45E-06
   480 Broy./Diag. 0.10E+00    5.4     0.00002895      -148.1889791294 -7.51E-07
   481 Broy./Diag. 0.10E+00    5.3     0.00003647      -148.1889788901  2.39E-07
   482 Broy./Diag. 0.10E+00    5.3     0.00005347      -148.1889787854  1.05E-07
   483 Broy./Diag. 0.10E+00    5.4     0.00008520      -148.1889789001 -1.15E-07
   484 Broy./Diag. 0.10E+00    5.4     0.00013200      -148.1889785333  3.67E-07
   485 Broy./Diag. 0.10E+00    5.3     0.00022734      -148.1889786808 -1.48E-07
   486 Broy./Diag. 0.10E+00    5.3     0.00042520      -148.1889802956 -1.61E-06
   487 Broy./Diag. 0.10E+00    5.2     0.00080344      -148.1889835389 -3.24E-06
   488 Broy./Diag. 0.10E+00    5.3     0.00154406      -148.1889881111 -4.57E-06
   489 Broy./Diag. 0.10E+00    5.3     0.00283484      -148.1889936947 -5.58E-06
   490 Broy./Diag. 0.10E+00    5.3     0.00465858      -148.1889883064  5.39E-06
   491 Broy./Diag. 0.10E+00    5.3     0.00745499      -148.1889810370  7.27E-06
   492 Broy./Diag. 0.10E+00    5.3     0.01200896      -148.1889851706 -4.13E-06
   493 Broy./Diag. 0.10E+00    5.4     0.01946224      -148.1889898585 -4.69E-06
   494 Broy./Diag. 0.10E+00    5.5     0.03253119      -148.1890194055 -2.95E-05
   495 Broy./Diag. 0.10E+00    5.4     0.05527935      -148.1891179689 -9.86E-05
   496 Broy./Diag. 0.10E+00    5.5     0.09150123      -148.1893582497 -2.40E-04
   497 Broy./Diag. 0.10E+00    5.4     0.13785147      -148.1899285067 -5.70E-04
   498 Broy./Diag. 0.10E+00    5.5     0.16876344      -148.1912444318 -1.32E-03
   499 Broy./Diag. 0.10E+00    5.3     0.16231383      -148.1937408587 -2.50E-03
   500 Broy./Diag. 0.10E+00    5.3     0.19614426      -148.1973026158 -3.56E-03

  Leaving inner SCF loop after reaching   500 steps.


  Electronic density on regular grids:        -11.5557335756        4.4442664244
  Core density on regular grids:               16.0000000000        0.0000000000
  Hard and soft densities (Lebedev):          -32.6340107742      -28.1876446466
  Total Rho_soft + Rho1_hard - Rho1_soft      -16.0020997032
  Total charge density (r-space):              -0.0020997032
  Total Rho_soft + Rho0_soft (g-space):        -0.0020998328

  Overlap energy of the core charge distribution:               0.00000000200246
  Self energy of the core charge distribution:               -145.82024045573709
  Core Hamiltonian energy:                                    -12.74402737655493
  Hartree energy:                                              25.90057889438907
  Exchange-correlation energy:                                 -4.97588120944041
  Hartree-Fock Exchange energy:                                -4.07347572891274

  GAPW| Exc from hard and soft atomic rho1:                    -7.76587593633825
  GAPW| local Eh = 1 center integrals:                          1.28161919480361

  Total energy:                                              -148.19730261578829

 *******************************************************************************
 *   ___                                                                       *
 *  /   \                                                                      *
 * [ABORT]                                                                     *
 *  \___/     SCF run NOT converged. To continue the calculation regardless,   *
 *    |             please set the keyword IGNORE_CONVERGENCE_FAILURE.         *
 *  O/|                                                                        *
 * /| |                                                                        *
 * / \                                                            qs_scf.F:611 *
 *******************************************************************************


 ===== Routine Calling Stack ===== 

            3 scf_env_do_scf
            2 qs_energies
            1 CP2K

 *******************************************************************************
 *   ___                                                                       *
 *  /   \                                                                      *
 * [ABORT]                                                                     *
 *  \___/     SCF run NOT converged. To continue the calculation regardless,   *
 *    |             please set the keyword IGNORE_CONVERGENCE_FAILURE.         *
 *  O/|                                                                        *
 * /| |                                                                        *
 * / \                                                            qs_scf.F:611 *
 *******************************************************************************


 ===== Routine Calling Stack ===== 

            3 scf_env_do_scf
            2 qs_energies
            1 CP2K

 *******************************************************************************
 *   ___                                                                       *
 *  /   \                                                                      *
 * [ABORT]                                                                     *
 *  \___/     SCF run NOT converged. To continue the calculation regardless,   *
 *    |             please set the keyword IGNORE_CONVERGENCE_FAILURE.         *
 *  O/|                                                                        *
 * /| |                                                                        *
 * / \                                                            qs_scf.F:611 *
 *******************************************************************************


 ===== Routine Calling Stack ===== 

            3 scf_env_do_scf
            2 qs_energies
            1 CP2K

 *******************************************************************************
 *   ___                                                                       *
 *  /   \                                                                      *
 * [ABORT]                                                                     *
 *  \___/     SCF run NOT converged. To continue the calculation regardless,   *
 *    |             please set the keyword IGNORE_CONVERGENCE_FAILURE.         *
 *  O/|                                                                        *
 * /| |                                                                        *
 * / \                                                            qs_scf.F:611 *
 *******************************************************************************


 ===== Routine Calling Stack ===== 

            3 scf_env_do_scf
            2 qs_energies
            1 CP2K

 *******************************************************************************
 *   ___                                                                       *
 *  /   \                                                                      *
 * [ABORT]                                                                     *
 *  \___/     SCF run NOT converged. To continue the calculation regardless,   *
 *    |             please set the keyword IGNORE_CONVERGENCE_FAILURE.         *
 *  O/|                                                                        *
 * /| |                                                                        *
 * / \                                                            qs_scf.F:611 *
 *******************************************************************************


 ===== Routine Calling Stack ===== 

            3 scf_env_do_scf
            2 qs_energies
            1 CP2K

 *******************************************************************************
 *   ___                                                                       *
 *  /   \                                                                      *
 * [ABORT]                                                                     *
 *  \___/     SCF run NOT converged. To continue the calculation regardless,   *
 *    |             please set the keyword IGNORE_CONVERGENCE_FAILURE.         *
 *  O/|                                                                        *
 * /| |                                                                        *
 * / \                                                            qs_scf.F:611 *
 *******************************************************************************


 ===== Routine Calling Stack ===== 

            3 scf_env_do_scf
            2 qs_energies
            1 CP2K

 *******************************************************************************
 *   ___                                                                       *
 *  /   \                                                                      *
 * [ABORT]                                                                     *
 *  \___/     SCF run NOT converged. To continue the calculation regardless,   *
 *    |             please set the keyword IGNORE_CONVERGENCE_FAILURE.         *
 *  O/|                                                                        *
 * /| |                                                                        *
 * / \                                                            qs_scf.F:611 *
 *******************************************************************************


 ===== Routine Calling Stack ===== 

            3 scf_env_do_scf
            2 qs_energies
            1 CP2K

 *******************************************************************************
 *   ___                                                                       *
 *  /   \                                                                      *
 * [ABORT]                                                                     *
 *  \___/     SCF run NOT converged. To continue the calculation regardless,   *
 *    |             please set the keyword IGNORE_CONVERGENCE_FAILURE.         *
 *  O/|                                                                        *
 * /| |                                                                        *
 * / \                                                            qs_scf.F:611 *
 *******************************************************************************


 ===== Routine Calling Stack ===== 

            3 scf_env_do_scf
            2 qs_energies
            1 CP2K

 *******************************************************************************
 *   ___                                                                       *
 *  /   \                                                                      *
 * [ABORT]                                                                     *
 *  \___/     SCF run NOT converged. To continue the calculation regardless,   *
 *    |             please set the keyword IGNORE_CONVERGENCE_FAILURE.         *
 *  O/|                                                                        *
 * /| |                                                                        *
 * / \                                                            qs_scf.F:611 *
 *******************************************************************************


 ===== Routine Calling Stack ===== 

            3 scf_env_do_scf
            2 qs_energies
            1 CP2K

 *******************************************************************************
 *   ___                                                                       *
 *  /   \                                                                      *
 * [ABORT]                                                                     *
 *  \___/     SCF run NOT converged. To continue the calculation regardless,   *
 *    |             please set the keyword IGNORE_CONVERGENCE_FAILURE.         *
 *  O/|                                                                        *
 * /| |                                                                        *
 * / \                                                            qs_scf.F:611 *
 *******************************************************************************


 ===== Routine Calling Stack ===== 

            3 scf_env_do_scf
            2 qs_energies
            1 CP2K

 *******************************************************************************
 *   ___                                                                       *
 *  /   \                                                                      *
 * [ABORT]                                                                     *
 *  \___/     SCF run NOT converged. To continue the calculation regardless,   *
 *    |             please set the keyword IGNORE_CONVERGENCE_FAILURE.         *
 *  O/|                                                                        *
 * /| |                                                                        *
 * / \                                                            qs_scf.F:611 *
 *******************************************************************************


 ===== Routine Calling Stack ===== 

            3 scf_env_do_scf
            2 qs_energies
            1 CP2K

 *******************************************************************************
 *   ___                                                                       *
 *  /   \                                                                      *
 * [ABORT]                                                                     *
 *  \___/     SCF run NOT converged. To continue the calculation regardless,   *
 *    |             please set the keyword IGNORE_CONVERGENCE_FAILURE.         *
 *  O/|                                                                        *
 * /| |                                                                        *
 * / \                                                            qs_scf.F:611 *
 *******************************************************************************


 ===== Routine Calling Stack ===== 

            3 scf_env_do_scf
            2 qs_energies
            1 CP2K

 *******************************************************************************
 *   ___                                                                       *
 *  /   \                                                                      *
 * [ABORT]                                                                     *
 *  \___/     SCF run NOT converged. To continue the calculation regardless,   *
 *    |             please set the keyword IGNORE_CONVERGENCE_FAILURE.         *
 *  O/|                                                                        *
 * /| |                                                                        *
 * / \                                                            qs_scf.F:611 *
 *******************************************************************************


 ===== Routine Calling Stack ===== 

            3 scf_env_do_scf
            2 qs_energies
            1 CP2K
