 DBCSR| CPU Multiplication driver                                           BLAS (U)
 DBCSR| Multrec recursion limit                                              512 (U)
 DBCSR| Multiplication stack size                                           1000 (D)
 DBCSR| Maximum elements for images                                    UNLIMITED (U)
 DBCSR| Multiplicative factor virtual images                                   1 (U)
 DBCSR| Use multiplication densification                                       T (D)
 DBCSR| Multiplication size stacks                                             3 (U)
 DBCSR| Use memory pool for CPU allocation                                     F (U)
 DBCSR| Number of 3D layers                                               SINGLE (U)
 DBCSR| Use MPI memory allocation                                              F (U)
 DBCSR| Use RMA algorithm                                                      F (U)
 DBCSR| Use Communication thread                                               T (U)
 DBCSR| Communication thread load                                             75 (D)
 DBCSR| MPI: My process id                                                     0
 DBCSR| MPI: Number of processes                                              24
 DBCSR| OMP: Current number of threads                                         4
 DBCSR| OMP: Max number of threads                                             4
 DBCSR| Split modifier for TAS multiplication algorithm                  1.0E+00 (U)


  **** **** ******  **  PROGRAM STARTED AT               2025-03-11 07:10:47.043
 ***** ** ***  *** **   PROGRAM STARTED ON                          i05r10c02s06
 **    ****   ******    PROGRAM STARTED BY                               di38fab
 ***** **    ** ** **   PROGRAM PROCESS ID                               2816542
  **** **  *******  **  PROGRAM STARTED IN /hppfs/scratch/04/di38fab/05_MOL/W4-1
                                           1+ALK/bh/aug-cc-pVDZ

 CP2K| version string:                 CP2K version 2025.1 (Development Version)
 CP2K| source code revision number:                                  git:d2e611a
 CP2K| cp2kflags: omp libint fftw3 libxc parallel scalapack max_contr=4         
 CP2K| is freely available from                            https://www.cp2k.org/
 CP2K| Program compiled at                       Thu 06 Mar 2025 05:09:20 PM CET
 CP2K| Program compiled on                                               login02
 CP2K| Program compiled for                                        Supermuc-foss
 CP2K| Data directory path                  /hppfs/work/pn36zo/di38fab/cp2k/data
 CP2K| Input file name                                                    GW.inp

 GLOBAL| Force Environment number                                              1
 GLOBAL| Basis set file name            /hppfs/scratch/04/di38fab/04_TMD/BASIS_A
 GLOBAL| Potential file name            /hppfs/work/pn36zo/di38fab/cp2k/data/ALL
 GLOBAL| MM Potential file name                                     MM_POTENTIAL
 GLOBAL| Coordinate file name                                      __STD_INPUT__
 GLOBAL| Method name                                                        CP2K
 GLOBAL| Project name                                                       MoS2
 GLOBAL| Run type                                                         ENERGY
 GLOBAL| FFT library                                                       FFTW3
 GLOBAL| Diagonalization library                                       ScaLAPACK
 GLOBAL| DGEMM library                                                      BLAS
 GLOBAL| Orthonormality check for eigenvectors                          DISABLED
 GLOBAL| Matrix multiplication library                                 ScaLAPACK
 GLOBAL| All-to-all communication in single precision                          F
 GLOBAL| FFTs using library dependent lengths                                  F
 GLOBAL| Grid backend                                                       AUTO
 GLOBAL| Global print level                                               MEDIUM
 GLOBAL| MPI I/O enabled                                                       T
 GLOBAL| Total number of message passing processes                            24
 GLOBAL| Number of threads for this process                                    4
 GLOBAL| This output is from process                                           0
 GLOBAL| OpenMP stack size per thread (OMP_STACKSIZE)                    default
 GLOBAL| CPU model name             Intel(R) Xeon(R) Platinum 8174 CPU @ 3.10GHz

 MEMORY| system memory details [Kb]
 MEMORY|                        rank 0           min           max       average
 MEMORY| MemTotal             98436664      98436660      98436664      98436662
 MEMORY| MemFree              83829828      83829828      83872296      83851062
 MEMORY| Buffers                     0             0             0             0
 MEMORY| Cached                2421192       2413244       2421192       2417218
 MEMORY| Slab                  1238416       1236216       1238416       1237316
 MEMORY| SReclaimable           277496        273492        277496        275494
 MEMORY| MemLikelyFree        86528516      86528516      86559032      86543774


 *** Fundamental physical constants (SI units) ***

 *** Literature: B. J. Mohr and B. N. Taylor,
 ***             CODATA recommended values of the fundamental physical
 ***             constants: 2006, Web Version 5.1
 ***             http://physics.nist.gov/constants

 Speed of light in vacuum [m/s]                             2.99792458000000E+08
 Magnetic constant or permeability of vacuum [N/A**2]       1.25663706143592E-06
 Electric constant or permittivity of vacuum [F/m]          8.85418781762039E-12
 Planck constant (h) [J*s]                                  6.62606896000000E-34
 Planck constant (h-bar) [J*s]                              1.05457162825177E-34
 Elementary charge [C]                                      1.60217648700000E-19
 Electron mass [kg]                                         9.10938215000000E-31
 Electron g factor [ ]                                     -2.00231930436220E+00
 Proton mass [kg]                                           1.67262163700000E-27
 Fine-structure constant                                    7.29735253760000E-03
 Rydberg constant [1/m]                                     1.09737315685270E+07
 Avogadro constant [1/mol]                                  6.02214179000000E+23
 Boltzmann constant [J/K]                                   1.38065040000000E-23
 Atomic mass unit [kg]                                      1.66053878200000E-27
 Bohr radius [m]                                            5.29177208590000E-11

 *** Conversion factors ***

 [u] -> [a.u.]                                              1.82288848426455E+03
 [Angstrom] -> [Bohr] = [a.u.]                              1.88972613288564E+00
 [a.u.] = [Bohr] -> [Angstrom]                              5.29177208590000E-01
 [a.u.] -> [s]                                              2.41888432650478E-17
 [a.u.] -> [fs]                                             2.41888432650478E-02
 [a.u.] -> [J]                                              4.35974393937059E-18
 [a.u.] -> [N]                                              8.23872205491840E-08
 [a.u.] -> [K]                                              3.15774647902944E+05
 [a.u.] -> [kJ/mol]                                         2.62549961709828E+03
 [a.u.] -> [kcal/mol]                                       6.27509468713739E+02
 [a.u.] -> [Pa]                                             2.94210107994716E+13
 [a.u.] -> [bar]                                            2.94210107994716E+08
 [a.u.] -> [atm]                                            2.90362800883016E+08
 [a.u.] -> [eV]                                             2.72113838565563E+01
 [a.u.] -> [Hz]                                             6.57968392072181E+15
 [a.u.] -> [1/cm] (wave numbers)                            2.19474631370540E+05
 [a.u./Bohr**2] -> [1/cm]                                   5.14048714338585E+03
 

 CELL_TOP| Volume [angstrom^3]:                                     27000.000000
 CELL_TOP| Vector a [angstrom    30.000     0.000     0.000   |a| =    30.000000
 CELL_TOP| Vector b [angstrom     0.000    30.000     0.000   |b| =    30.000000
 CELL_TOP| Vector c [angstrom     0.000     0.000    30.000   |c| =    30.000000
 CELL_TOP| Angle (b,c), alpha [degree]:                                90.000000
 CELL_TOP| Angle (a,c), beta  [degree]:                                90.000000
 CELL_TOP| Angle (a,b), gamma [degree]:                                90.000000
 CELL_TOP| Numerically orthorhombic:                                         YES
 CELL_TOP| Periodicity                                                      NONE

 GENERATE|  Preliminary Number of Bonds generated:                             0
 GENERATE|  Achieved consistency in connectivity generation.

 CELL| Volume [angstrom^3]:                                         27000.000000
 CELL| Vector a [angstrom]:      30.000     0.000     0.000   |a| =    30.000000
 CELL| Vector b [angstrom]:       0.000    30.000     0.000   |b| =    30.000000
 CELL| Vector c [angstrom]:       0.000     0.000    30.000   |c| =    30.000000
 CELL| Angle (b,c), alpha [degree]:                                    90.000000
 CELL| Angle (a,c), beta  [degree]:                                    90.000000
 CELL| Angle (a,b), gamma [degree]:                                    90.000000
 CELL| Numerically orthorhombic:                                             YES
 CELL| Periodicity                                                          NONE

 CELL_REF| Volume [angstrom^3]:                                     27000.000000
 CELL_REF| Vector a [angstrom    30.000     0.000     0.000   |a| =    30.000000
 CELL_REF| Vector b [angstrom     0.000    30.000     0.000   |b| =    30.000000
 CELL_REF| Vector c [angstrom     0.000     0.000    30.000   |c| =    30.000000
 CELL_REF| Angle (b,c), alpha [degree]:                                90.000000
 CELL_REF| Angle (a,c), beta  [degree]:                                90.000000
 CELL_REF| Angle (a,b), gamma [degree]:                                90.000000
 CELL_REF| Numerically orthorhombic:                                         YES
 CELL_REF| Periodicity                                                      NONE

 *******************************************************************************
 *******************************************************************************
 **                                                                           **
 **     #####                         ##              ##                      **
 **    ##   ##            ##          ##              ##                      **
 **   ##     ##                       ##            ######                    **
 **   ##     ##  ##   ##  ##   #####  ##  ##   ####   ##    #####    #####    **
 **   ##     ##  ##   ##  ##  ##      ## ##   ##      ##   ##   ##  ##   ##   **
 **   ##  ## ##  ##   ##  ##  ##      ####     ###    ##   ######   ######    **
 **    ##  ###   ##   ##  ##  ##      ## ##      ##   ##   ##       ##        **
 **     #######   #####   ##   #####  ##  ##  ####    ##    #####   ##        **
 **           ##                                                    ##        **
 **                                                                           **
 **                                                ... make the atoms dance   **
 **                                                                           **
 **            Copyright (C) by CP2K developers group (2000-2025)             **
 **                      J. Chem. Phys. 152, 194103 (2020)                    **
 **                                                                           **
 *******************************************************************************

 DFT| Spin restricted Kohn-Sham (RKS) calculation                            RKS
 DFT| Multiplicity                                                             1
 DFT| Number of spin states                                                    1
 DFT| Charge                                                                   0
 DFT| Self-interaction correction (SIC)                                       NO
 DFT| Cutoffs: density                                              1.000000E-10
 DFT|          gradient                                             1.000000E-10
 DFT|          tau                                                  1.000000E-10
 DFT|          cutoff_smoothing_range                               0.000000E+00
 DFT| XC density smoothing                                                  NONE
 DFT| XC derivatives                                                          PW

 FUNCTIONAL| PBE:
 FUNCTIONAL| J.P.Perdew, K.Burke, M.Ernzerhof, Phys. Rev. Letter, vol. 77, n 18,
 FUNCTIONAL|  pp. 3865-3868, (1996)sx=0.750sc=1.000{spin unpolarized}           


 QS| Method:                                                                GAPW
 QS| Density plane wave grid type                        NON-SPHERICAL FULLSPACE
 QS| Number of grid levels:                                                    4
 QS| Density cutoff [a.u.]:                                                250.0
 QS| Multi grid cutoff [a.u.]: 1) grid level                               250.0
 QS|                           2) grid level                                83.3
 QS|                           3) grid level                                27.8
 QS|                           4) grid level                                 9.3
 QS| Grid level progression factor:                                          3.0
 QS| Relative density cutoff [a.u.]:                                        50.0
 QS| Interaction thresholds: eps_pgf_orb:                                1.0E-12
 QS|                         eps_filter_matrix:                          0.0E+00
 QS|                         eps_core_charge:                            1.0E-14
 QS|                         eps_rho_gspace:                             1.0E-12
 QS|                         eps_rho_rspace:                             1.0E-12
 QS|                         eps_gvg_rspace:                             1.0E-06
 QS|                         eps_ppl:                                    1.0E-02
 QS|                         eps_ppnl:                                   1.0E-08
 QS| GAPW|      One center basis from orbital basis primitives
 QS| GAPW|                   eps_fit:                                    1.0E-04
 QS| GAPW|                   eps_iso:                                    1.0E-12
 QS| GAPW|                   eps_svd:                                    1.0E-08
 QS| GAPW|                   eps_cpc:                                    1.0E-12
 QS| GAPW|   atom-r-grid: quadrature:                                     GC_LOG
 QS| GAPW|      atom-s-grid:  max l :                                          4
 QS| GAPW|      max_l_rho0 :                                                   2


 ATOMIC KIND INFORMATION

  1. Atomic kind: B                                     Number of atoms:       1

     Orbital Basis Set                                               aug-cc-pVDZ

       Number of orbital shell sets:                                           6
       Number of orbital shells:                                               9
       Number of primitive Cartesian functions:                               17
       Number of Cartesian basis functions:                                   25
       Number of spherical basis functions:                                   23
       Norm type:                                                              2

       Normalised Cartesian orbitals:

                        Set   Shell   Orbital            Exponent    Coefficient

                          1       1    1px               0.023780       0.013311
                          1       1    1py               0.023780       0.013311
                          1       1    1pz               0.023780       0.013311

                          2       1    1s                0.031050       0.052718

                          3       1    1dx2              0.090400       0.024530
                          3       1    1dxy              0.090400       0.042488
                          3       1    1dxz              0.090400       0.042488
                          3       1    1dy2              0.090400       0.024530
                          3       1    1dyz              0.090400       0.042488
                          3       1    1dz2              0.090400       0.024530

                          4       1    1px               6.001000       0.475024
                                                         1.241000       0.369809
                                                         0.336400       0.184501
                                                         0.095380       0.036228
                          4       1    1py               6.001000       0.475024
                                                         1.241000       0.369809
                                                         0.336400       0.184501
                                                         0.095380       0.036228
                          4       1    1pz               6.001000       0.475024
                                                         1.241000       0.369809
                                                         0.336400       0.184501
                                                         0.095380       0.036228

                          4       2    2px               6.001000       0.000000
                                                         1.241000       0.000000
                                                         0.336400       0.000000
                                                         0.095380       0.075555
                          4       2    2py               6.001000       0.000000
                                                         1.241000       0.000000
                                                         0.336400       0.000000
                                                         0.095380       0.075555
                          4       2    2pz               6.001000       0.000000
                                                         1.241000       0.000000
                                                         0.336400       0.000000
                                                         0.095380       0.075555

                          5       1    1s             4570.000000       0.275713
                                                       685.900000       0.511332
                                                       156.500000       0.855677
                                                        44.470000       1.244265
                                                        14.480000       1.439274
                                                         5.131000       1.089508
                                                         1.898000       0.334360
                                                         0.332900       0.004474
                                                         0.104300      -0.000456

                          5       2    2s             4570.000000      -0.055063
                                                       685.900000      -0.104788
                                                       156.500000      -0.171678
                                                        44.470000      -0.268981
                                                        14.480000      -0.316105
                                                         5.131000      -0.337084
                                                         1.898000      -0.151530
                                                         0.332900       0.168522
                                                         0.104300       0.075968

                          5       3    3s             4570.000000       0.000000
                                                       685.900000       0.000000
                                                       156.500000       0.000000
                                                        44.470000       0.000000
                                                        14.480000       0.000000
                                                         5.131000       0.000000
                                                         1.898000       0.000000
                                                         0.332900       0.000000
                                                         0.104300       0.130805

                          6       1    1dx2              0.343000       0.253031
                          6       1    1dxy              0.343000       0.438263
                          6       1    1dxz              0.343000       0.438263
                          6       1    1dy2              0.343000       0.253031
                          6       1    1dyz              0.343000       0.438263
                          6       1    1dz2              0.343000       0.253031

     RI Auxiliary Basis Set                                    aug-cc-pVDZ-OPTRI

       Number of orbital shell sets:                                          17
       Number of orbital shells:                                              17
       Number of primitive Cartesian functions:                               17
       Number of Cartesian basis functions:                                   88
       Number of spherical basis functions:                                   69
       Norm type:                                                              2

       Normalised Cartesian orbitals:

                        Set   Shell   Orbital            Exponent    Coefficient

                          1       1    1px               0.050296       0.033951
                          1       1    1py               0.050296       0.033951
                          1       1    1pz               0.050296       0.033951

                          2       1    1s                0.056572       0.082673

                          3       1    1px               0.150012       0.133075
                          3       1    1py               0.150012       0.133075
                          3       1    1pz               0.150012       0.133075

                          4       1    1fx3              0.199135       0.038997
                          4       1    1fx2y             0.199135       0.087201
                          4       1    1fx2z             0.199135       0.087201
                          4       1    1fxy2             0.199135       0.087201
                          4       1    1fxyz             0.199135       0.151037
                          4       1    1fxz2             0.199135       0.087201
                          4       1    1fy3              0.199135       0.038997
                          4       1    1fy2z             0.199135       0.087201
                          4       1    1fyz2             0.199135       0.087201
                          4       1    1fz3              0.199135       0.038997

                          5       1    1dx2              0.228104       0.123920
                          5       1    1dxy              0.228104       0.214636
                          5       1    1dxz              0.228104       0.214636
                          5       1    1dy2              0.228104       0.123920
                          5       1    1dyz              0.228104       0.214636
                          5       1    1dz2              0.228104       0.123920

                          6       1    1s                0.309008       0.295384

                          7       1    1px               0.312340       0.332832
                          7       1    1py               0.312340       0.332832
                          7       1    1pz               0.312340       0.332832

                          8       1    1dx2              0.523825       0.530867
                          8       1    1dxy              0.523825       0.919488
                          8       1    1dxz              0.523825       0.919488
                          8       1    1dy2              0.523825       0.530867
                          8       1    1dyz              0.523825       0.919488
                          8       1    1dz2              0.523825       0.530867

                          9       1    1fx3              0.580150       0.432434
                          9       1    1fx2y             0.580150       0.966952
                          9       1    1fx2z             0.580150       0.966952
                          9       1    1fxy2             0.580150       0.966952
                          9       1    1fxyz             0.580150       1.674811
                          9       1    1fxz2             0.580150       0.966952
                          9       1    1fy3              0.580150       0.432434
                          9       1    1fy2z             0.580150       0.966952
                          9       1    1fyz2             0.580150       0.966952
                          9       1    1fz3              0.580150       0.432434

                         10       1    1gx4              0.624505       0.304901
                         10       1    1gx3y             0.624505       0.806693
                         10       1    1gx3z             0.624505       0.806693
                         10       1    1gx2y2            0.624505       1.041436
                         10       1    1gx2yz            0.624505       1.803820
                         10       1    1gx2z2            0.624505       1.041436
                         10       1    1gxy3             0.624505       0.806693
                         10       1    1gxy2z            0.624505       1.803820
                         10       1    1gxyz2            0.624505       1.803820
                         10       1    1gxz3             0.624505       0.806693
                         10       1    1gy4              0.624505       0.304901
                         10       1    1gy3z             0.624505       0.806693
                         10       1    1gy2z2            0.624505       1.041436
                         10       1    1gyz3             0.624505       0.806693
                         10       1    1gz4              0.624505       0.304901

                         11       1    1px               0.650325       0.832440
                         11       1    1py               0.650325       0.832440
                         11       1    1pz               0.650325       0.832440

                         12       1    1s                1.138224       0.785382

                         13       1    1px               1.354044       2.082002
                         13       1    1py               1.354044       2.082002
                         13       1    1pz               1.354044       2.082002

                         14       1    1dx2              1.406891       2.991336
                         14       1    1dxy              1.406891       5.181147
                         14       1    1dxz              1.406891       5.181147
                         14       1    1dy2              1.406891       2.991336
                         14       1    1dyz              1.406891       5.181147
                         14       1    1dz2              1.406891       2.991336

                         15       1    1fx3              1.679928       4.729971
                         15       1    1fx2y             1.679928      10.576536
                         15       1    1fx2z             1.679928      10.576536
                         15       1    1fxy2             1.679928      10.576536
                         15       1    1fxyz             1.679928      18.319098
                         15       1    1fxz2             1.679928      10.576536
                         15       1    1fy3              1.679928       4.729971
                         15       1    1fy2z             1.679928      10.576536
                         15       1    1fyz2             1.679928      10.576536
                         15       1    1fz3              1.679928       4.729971

                         16       1    1dx2              3.778629      16.855607
                         16       1    1dxy              3.778629      29.194768
                         16       1    1dxz              3.778629      29.194768
                         16       1    1dy2              3.778629      16.855607
                         16       1    1dyz              3.778629      29.194768
                         16       1    1dz2              3.778629      16.855607

                         17       1    1s                4.192619       2.088210

       Atomic covalent radius [Angstrom]:                                  0.820

       Atomic van der Waals radius [Angstrom]:                             1.920

     The atoms of this atomic kind are PAW atoms (GAPW):
       Hard Gaussian function radius:                                      1.512
       Rho0 radius:                                                        1.512
       Maximum GTO radius used for PAW projector construction:            24.566

     GAPW Soft Basis Set                                        aug-cc-pVDZ_soft

       Number of orbital shell sets:                                           6
       Number of orbital shells:                                               9
       Number of primitive Cartesian functions:                               10
       Number of Cartesian basis functions:                                   25
       Number of spherical basis functions:                                   23
       Norm type:                                                              2

       Normalised Cartesian orbitals:

                        Set   Shell   Orbital            Exponent    Coefficient

                          1       1    1px               0.023780       0.013311
                          1       1    1py               0.023780       0.013311
                          1       1    1pz               0.023780       0.013311

                          2       1    1s                0.031050       0.052718

                          3       1    1dx2              0.090400       0.024530
                          3       1    1dxy              0.090400       0.042488
                          3       1    1dxz              0.090400       0.042488
                          3       1    1dy2              0.090400       0.024530
                          3       1    1dyz              0.090400       0.042488
                          3       1    1dz2              0.090400       0.024530

                          4       1    1px               1.241000       0.369809
                                                         0.336400       0.184501
                                                         0.095380       0.036228
                          4       1    1py               1.241000       0.369809
                                                         0.336400       0.184501
                                                         0.095380       0.036228
                          4       1    1pz               1.241000       0.369809
                                                         0.336400       0.184501
                                                         0.095380       0.036228

                          4       2    2px               1.241000       0.000000
                                                         0.336400       0.000000
                                                         0.095380       0.075555
                          4       2    2py               1.241000       0.000000
                                                         0.336400       0.000000
                                                         0.095380       0.075555
                          4       2    2pz               1.241000       0.000000
                                                         0.336400       0.000000
                                                         0.095380       0.075555

                          5       1    1s                1.898000       0.334360
                                                         0.332900       0.004474
                                                         0.104300      -0.000456

                          5       2    2s                1.898000      -0.151530
                                                         0.332900       0.168522
                                                         0.104300       0.075968

                          5       3    3s                1.898000       0.000000
                                                         0.332900       0.000000
                                                         0.104300       0.130805

                          6       1    1dx2              0.343000       0.253031
                          6       1    1dxy              0.343000       0.438263
                          6       1    1dxz              0.343000       0.438263
                          6       1    1dy2              0.343000       0.253031
                          6       1    1dyz              0.343000       0.438263
                          6       1    1dz2              0.343000       0.253031

     AE Potential information for                                            ALL

       Description:                                       All-electron potential
                                          Krack, Parrinello, PCCP 2, 2105 (2000)

       Gaussian exponent of the core charge distribution:               2.655410
       Electronic configuration (s p d ...):                           4   1   0

  2. Atomic kind: H                                     Number of atoms:       1

     Orbital Basis Set                                               aug-cc-pVDZ

       Number of orbital shell sets:                                           4
       Number of orbital shells:                                               5
       Number of primitive Cartesian functions:                                7
       Number of Cartesian basis functions:                                    9
       Number of spherical basis functions:                                    9
       Norm type:                                                              2

       Normalised Cartesian orbitals:

                        Set   Shell   Orbital            Exponent    Coefficient

                          1       1    1s                0.029740       0.051041

                          2       1    1s               13.010000       0.096107
                                                         1.962000       0.163020
                                                         0.444600       0.185545
                                                         0.122000       0.073744

                          2       2    2s               13.010000       0.000000
                                                         1.962000       0.000000
                                                         0.444600       0.000000
                                                         0.122000       0.147123

                          3       1    1px               0.141000       0.123158
                          3       1    1py               0.141000       0.123158
                          3       1    1pz               0.141000       0.123158

                          4       1    1px               0.727000       0.956881
                          4       1    1py               0.727000       0.956881
                          4       1    1pz               0.727000       0.956881

     RI Auxiliary Basis Set                                    aug-cc-pVDZ-OPTRI

       Number of orbital shell sets:                                           8
       Number of orbital shells:                                               8
       Number of primitive Cartesian functions:                                8
       Number of Cartesian basis functions:                                   24
       Number of spherical basis functions:                                   22
       Norm type:                                                              2

       Normalised Cartesian orbitals:

                        Set   Shell   Orbital            Exponent    Coefficient

                          1       1    1s                0.081394       0.108606

                          2       1    1px               0.273202       0.281543
                          2       1    1py               0.273202       0.281543
                          2       1    1pz               0.273202       0.281543

                          3       1    1s                0.286540       0.279125

                          4       1    1dx2              0.757634       1.012660
                          4       1    1dxy              0.757634       1.753978
                          4       1    1dxz              0.757634       1.753978
                          4       1    1dy2              0.757634       1.012660
                          4       1    1dyz              0.757634       1.753978
                          4       1    1dz2              0.757634       1.012660

                          5       1    1px               1.251075       1.886011
                          5       1    1py               1.251075       1.886011
                          5       1    1pz               1.251075       1.886011

                          6       1    1s                1.320036       0.877707

                          7       1    1dx2              2.604730       8.790108
                          7       1    1dxy              2.604730      15.224913
                          7       1    1dxz              2.604730      15.224913
                          7       1    1dy2              2.604730       8.790108
                          7       1    1dyz              2.604730      15.224913
                          7       1    1dz2              2.604730       8.790108

                          8       1    1px               2.667161       4.858494
                          8       1    1py               2.667161       4.858494
                          8       1    1pz               2.667161       4.858494

       Atomic covalent radius [Angstrom]:                                  0.320

       Atomic van der Waals radius [Angstrom]:                             1.090

     The atoms of this atomic kind are PAW atoms (GAPW):
       Hard Gaussian function radius:                                      1.200
       Rho0 radius:                                                        1.200
       Maximum GTO radius used for PAW projector construction:            24.566

     GAPW Soft Basis Set                                        aug-cc-pVDZ_soft

       Number of orbital shell sets:                                           4
       Number of orbital shells:                                               5
       Number of primitive Cartesian functions:                                6
       Number of Cartesian basis functions:                                    9
       Number of spherical basis functions:                                    9
       Norm type:                                                              2

       Normalised Cartesian orbitals:

                        Set   Shell   Orbital            Exponent    Coefficient

                          1       1    1s                0.029740       0.051041

                          2       1    1s                1.962000       0.163020
                                                         0.444600       0.185545
                                                         0.122000       0.073744

                          2       2    2s                1.962000       0.000000
                                                         0.444600       0.000000
                                                         0.122000       0.147123

                          3       1    1px               0.141000       0.123158
                          3       1    1py               0.141000       0.123158
                          3       1    1pz               0.141000       0.123158

                          4       1    1px               0.727000       0.956881
                          4       1    1py               0.727000       0.956881
                          4       1    1pz               0.727000       0.956881

     AE Potential information for                                            ALL

       Description:                                       All-electron potential
                                          Krack, Parrinello, PCCP 2, 2105 (2000)

       Gaussian exponent of the core charge distribution:              12.500000
       Electronic configuration (s p d ...):                           1   0   0


 MOLECULE KIND INFORMATION


 All atoms are their own molecule, skipping detailed information


 TOTAL NUMBERS AND MAXIMUM NUMBERS

  Total number of            - Atomic kinds:                                   2
                             - Atoms:                                          2
                             - Shell sets:                                    10
                             - Shells:                                        14
                             - Primitive Cartesian functions:                 24
                             - Cartesian basis functions:                     34
                             - Spherical basis functions:                     32

  Maximum angular momentum of the orbital basis functions:                     2


 MODULE QUICKSTEP: ATOMIC COORDINATES IN ANGSTROM

   Atom Kind Element         X             Y             Z       Z(eff)     Mass
      1    1 B     5     15.616628     15.000000     15.000000   5.0000  10.8110
      2    2 H     1     14.383372     15.000000     15.000000   1.0000   1.0079



 SCF PARAMETERS         Density guess:                                    ATOMIC
                        --------------------------------------------------------
                        max_scf:                                             500
                        max_scf_history:                                       0
                        max_diis:                                              4
                        --------------------------------------------------------
                        eps_scf:                                        1.00E-06
                        eps_scf_history:                                0.00E+00
                        eps_diis:                                       1.00E-01
                        eps_eigval:                                     1.00E-05
                        --------------------------------------------------------
                        level_shift [a.u.]:                             0.000000
                        added MOs                                        29    0
                        --------------------------------------------------------
                        Mixing method:                            BROYDEN_MIXING
                                                charge density mixing in g-space
                        --------------------------------------------------------
                        No outer SCF

 PW_GRID| Information for grid number                                          1
 PW_GRID| Grid distributed over                                    24 processors
 PW_GRID| Real space group dimensions                                    24    1
 PW_GRID| the grid is blocked:                                                NO
 PW_GRID| Cutoff [a.u.]                                                    250.0
 PW_GRID| spherical cutoff:                                                   NO
 PW_GRID|   Bounds   1           -202     202                Points:         405
 PW_GRID|   Bounds   2           -202     202                Points:         405
 PW_GRID|   Bounds   3           -202     202                Points:         405
 PW_GRID| Volume element (a.u.^3)  0.2743E-02     Volume (a.u.^3)    182205.0337
 PW_GRID| Grid span                                                    FULLSPACE
 PW_GRID|   Distribution                         Average         Max         Min
 PW_GRID|   G-Vectors                          2767921.9     2768175     2767770
 PW_GRID|   G-Rays                                6834.4        6835        6834
 PW_GRID|   Real Space Points                  2767921.9     2788425     2624400

 PW_GRID| Information for grid number                                          2
 PW_GRID| Number of the reference grid                                         1
 PW_GRID| Grid distributed over                                    24 processors
 PW_GRID| Real space group dimensions                                    24    1
 PW_GRID| the grid is blocked:                                                NO
 PW_GRID| Cutoff [a.u.]                                                     83.3
 PW_GRID| spherical cutoff:                                                   NO
 PW_GRID|   Bounds   1           -120     119                Points:         240
 PW_GRID|   Bounds   2           -120     119                Points:         240
 PW_GRID|   Bounds   3           -120     119                Points:         240
 PW_GRID| Volume element (a.u.^3)  0.1318E-01     Volume (a.u.^3)    182205.0337
 PW_GRID| Grid span                                                    FULLSPACE
 PW_GRID|   Distribution                         Average         Max         Min
 PW_GRID|   G-Vectors                           576000.0      576240      575760
 PW_GRID|   G-Rays                                2400.0        2401        2399
 PW_GRID|   Real Space Points                   576000.0      576000      576000

 PW_GRID| Information for grid number                                          3
 PW_GRID| Number of the reference grid                                         1
 PW_GRID| Grid distributed over                                    24 processors
 PW_GRID| Real space group dimensions                                    24    1
 PW_GRID| the grid is blocked:                                                NO
 PW_GRID| Cutoff [a.u.]                                                     27.8
 PW_GRID| spherical cutoff:                                                   NO
 PW_GRID|   Bounds   1            -67      67                Points:         135
 PW_GRID|   Bounds   2            -67      67                Points:         135
 PW_GRID|   Bounds   3            -67      67                Points:         135
 PW_GRID| Volume element (a.u.^3)  0.7406E-01     Volume (a.u.^3)    182205.0337
 PW_GRID| Grid span                                                    FULLSPACE
 PW_GRID|   Distribution                         Average         Max         Min
 PW_GRID|   G-Vectors                           102515.6      102735      102330
 PW_GRID|   G-Rays                                 759.4         761         758
 PW_GRID|   Real Space Points                   102515.6      109350       91125

 PW_GRID| Information for grid number                                          4
 PW_GRID| Number of the reference grid                                         1
 PW_GRID| Grid distributed over                                    24 processors
 PW_GRID| Real space group dimensions                                    24    1
 PW_GRID| the grid is blocked:                                                NO
 PW_GRID| Cutoff [a.u.]                                                      9.3
 PW_GRID| spherical cutoff:                                                   NO
 PW_GRID|   Bounds   1            -40      39                Points:          80
 PW_GRID|   Bounds   2            -40      39                Points:          80
 PW_GRID|   Bounds   3            -40      39                Points:          80
 PW_GRID| Volume element (a.u.^3)  0.3559         Volume (a.u.^3)    182205.0337
 PW_GRID| Grid span                                                    FULLSPACE
 PW_GRID|   Distribution                         Average         Max         Min
 PW_GRID|   G-Vectors                            21333.3       21360       21280
 PW_GRID|   G-Rays                                 266.7         267         266
 PW_GRID|   Real Space Points                    21333.3       25600       19200

 POISSON| Solver                                                         WAVELET
 POISSON| Wavelet| Scaling function                                           40
 POISSON| Periodicity                                                       NONE

 RS_GRID| Information for grid number                                          1
 RS_GRID|   Bounds   1           -202     202                Points:         405
 RS_GRID|   Bounds   2           -202     202                Points:         405
 RS_GRID|   Bounds   3           -202     202                Points:         405
 RS_GRID| Real space distribution over                                  4 groups
 RS_GRID| Real space distribution along direction                              2
 RS_GRID| Border size                                                         33
 RS_GRID| Real space distribution over                                  6 groups
 RS_GRID| Real space distribution along direction                              3
 RS_GRID| Border size                                                         33
 RS_GRID|   Distribution                         Average         Max         Min
 RS_GRID|   Planes                                 167.2         168         167
 RS_GRID|   Distribution                         Average         Max         Min
 RS_GRID|   Planes                                 133.5         134         133

 RS_GRID| Information for grid number                                          2
 RS_GRID|   Bounds   1           -120     119                Points:         240
 RS_GRID|   Bounds   2           -120     119                Points:         240
 RS_GRID|   Bounds   3           -120     119                Points:         240
 RS_GRID| Real space distribution over                                  4 groups
 RS_GRID| Real space distribution along direction                              2
 RS_GRID| Border size                                                         34
 RS_GRID| Real space distribution over                                  6 groups
 RS_GRID| Real space distribution along direction                              3
 RS_GRID| Border size                                                         34
 RS_GRID|   Distribution                         Average         Max         Min
 RS_GRID|   Planes                                 128.0         128         128
 RS_GRID|   Distribution                         Average         Max         Min
 RS_GRID|   Planes                                 108.0         108         108

 RS_GRID| Information for grid number                                          3
 RS_GRID|   Bounds   1            -67      67                Points:         135
 RS_GRID|   Bounds   2            -67      67                Points:         135
 RS_GRID|   Bounds   3            -67      67                Points:         135
 RS_GRID| Real space fully replicated
 RS_GRID| Group size                                                           1

 RS_GRID| Information for grid number                                          4
 RS_GRID|   Bounds   1            -40      39                Points:          80
 RS_GRID|   Bounds   2            -40      39                Points:          80
 RS_GRID|   Bounds   3            -40      39                Points:          80
 RS_GRID| Real space fully replicated
 RS_GRID| Group size                                                           1

  HFX_INFO| Replica ID:                                                        1
  HFX_INFO| FRACTION:                                               0.2500000000
  HFX_INFO| Interaction Potential:                                       COULOMB
  HFX_INFO| EPS_SCHWARZ:                                                 1.0E-10
  HFX_INFO| EPS_SCHWARZ_FORCES                                           1.0E-08
  HFX_INFO| EPS_STORAGE_SCALING:                                         1.0E+00
  HFX_INFO| NBINS:                                                            64
  HFX_INFO| BLOCK_SIZE:                                                        1
  HFX_INFO| Number of periodic shells considered:                           NONE
  HFX_INFO| Number of periodic cells considered:                            NONE

 
 RI-RPA| using GPW style
 

 OVERLAP MATRIX CONDITION NUMBER
 1-Norm Condition Number (Estimate)
   CN : |A|*|A^-1|:  6.766E+000 *  1.948E+003   = 1.318E+004  Log(1-CN):  4.1199
 1-Norm and 2-Norm Condition Numbers using Diagonalization
   CN : |A|*|A^-1|:  6.766E+000 *  1.948E+003   = 1.318E+004  Log(1-CN):  4.1199
   CN : max/min ev:  4.834E+000 /  8.351E-004   = 5.789E+003  Log(2-CN):  3.7626

 Number of electrons:                                                          6
 Number of occupied orbitals:                                                  3
 Number of molecular orbitals:                                                32

 Number of orbital functions:                                                 32
 Number of independent orbital functions:                                     32

 Extrapolation method: initial_guess

 Atomic guess: The first density matrix is obtained in terms of atomic orbitals
               and electronic configurations assigned to each atomic kind

 Guess for atomic kind: B

 Electronic structure
    Total number of core electrons                                          0.00
    Total number of valence electrons                                       5.00
    Total number of electrons                                               5.00
    Multiplicity                                                   not specified
    S      2.00  2.00
    P      1.00


 *******************************************************************************
                  Iteration          Convergence                     Energy [au]
 *******************************************************************************
                          1        0.460359E-01                 -24.334985930574
                          2        0.205214E-01                 -24.337140561715
                          3        0.117435E-02                 -24.337989566848
                          4        0.175895E-04                 -24.337991674331
                          5        0.596531E-07                 -24.337991674739

 Energy components [Hartree]           Total Energy ::          -24.337991674739
                                        Band Energy ::          -13.931958661609
                                     Kinetic Energy ::           24.427852794124
                                   Potential Energy ::          -48.765844468863
                                      Virial (-V/T) ::            1.996321366428
                                        Core Energy ::          -32.323145461531
                                          XC Energy ::           -3.540020579852
                                     Coulomb Energy ::           11.525174366644

 Orbital energies  State     L     Occupation   Energy[a.u.]          Energy[eV]

                       1     0          2.000      -6.552602         -178.305360
                       2     0          2.000      -0.345371           -9.398013

                       1     1          1.000      -0.136014           -3.701130


 Total Electron Density at R=0:                                        68.786961

 Guess for atomic kind: H

 Electronic structure
    Total number of core electrons                                          0.00
    Total number of valence electrons                                       1.00
    Total number of electrons                                               1.00
    Multiplicity                                                   not specified
    S      1.00


 *******************************************************************************
                  Iteration          Convergence                     Energy [au]
 *******************************************************************************
                          1        0.880988E-02                  -0.444778274653
                          2        0.791349E-03                  -0.444877834394
                          3        0.111042E-03                  -0.444880192149
                          4        0.306660E-07                  -0.444880212296

 Energy components [Hartree]           Total Energy ::           -0.444880212296
                                        Band Energy ::           -0.232361879729
                                     Kinetic Energy ::            0.420568354334
                                   Potential Energy ::           -0.865448566630
                                      Virial (-V/T) ::            2.057807150044
                                        Core Energy ::           -0.495477856147
                                          XC Energy ::           -0.232385335983
                                     Coulomb Energy ::            0.282982979834

 Orbital energies  State     L     Occupation   Energy[a.u.]          Energy[eV]

                       1     0          1.000      -0.232362           -6.322888


 Total Electron Density at R=0:                                         0.221399
 Re-scaling the density matrix to get the right number of electrons
                  # Electrons              Trace(P)               Scaling factor
                            6                 6.000                        1.000


 SCF WAVEFUNCTION OPTIMIZATION

  Step     Update method      Time    Convergence         Total energy    Change
  ------------------------------------------------------------------------------

  HFX_MEM_INFO| Est. max. program size before HFX [MiB]:                    2132
  HFX_MEM_INFO| Number of cart. primitive ERI's calculated:              2810414
  HFX_MEM_INFO| Number of sph. ERI's calculated:                          498370
  HFX_MEM_INFO| Number of sph. ERI's stored in-core:                      498370
  HFX_MEM_INFO| Number of sph. ERI's stored on disk:                           0
  HFX_MEM_INFO| Number of sph. ERI's calculated on the fly:                    0
  HFX_MEM_INFO| Total memory consumption ERI's RAM [MiB]:                      3
  HFX_MEM_INFO| Whereof max-vals [MiB]:                                        1
  HFX_MEM_INFO| Total compression factor ERI's RAM:                         1.73
  HFX_MEM_INFO| Total memory consumption ERI's disk [MiB]:                     0
  HFX_MEM_INFO| Total compression factor ERI's disk:                        0.00
  HFX_MEM_INFO| Size of density/Fock matrix [MiB]:                             0
  HFX_MEM_INFO| Size of buffers [MiB]:                                         0
  HFX_MEM_INFO| Est. max. program size after HFX  [MiB]:                    2641

     1 NoMix/Diag. 0.10E+00    6.6     1.02334158       -25.1688298177 -2.52E+01
     2 Broy./Diag. 0.10E+00    4.7     0.14753860       -24.9893481175  1.79E-01
     3 Broy./Diag. 0.10E+00    4.9     0.17296240       -24.7891271615  2.00E-01
     4 Broy./Diag. 0.10E+00    4.8     0.37384729       -25.0371298362 -2.48E-01
     5 Broy./Diag. 0.10E+00    4.8     0.05987547       -25.1108778177 -7.37E-02
     6 Broy./Diag. 0.10E+00    4.9     0.01847135       -25.1147804766 -3.90E-03
     7 Broy./Diag. 0.10E+00    5.0     0.06149172       -25.1691118585 -5.43E-02
     8 Broy./Diag. 0.10E+00    5.1     0.01892480       -25.2055394436 -3.64E-02
     9 Broy./Diag. 0.10E+00    5.2     0.01941810       -25.2250151541 -1.95E-02
    10 Broy./Diag. 0.10E+00    5.3     0.03471450       -25.2418882520 -1.69E-02
    11 Broy./Diag. 0.10E+00    5.2     0.00878374       -25.2496245255 -7.74E-03
    12 Broy./Diag. 0.10E+00    5.3     0.00841799       -25.2453172963  4.31E-03
    13 Broy./Diag. 0.10E+00    5.3     0.00679617       -25.2412501890  4.07E-03
    14 Broy./Diag. 0.10E+00    5.3     0.00151293       -25.2436638736 -2.41E-03
    15 Broy./Diag. 0.10E+00    5.3     0.00597756       -25.2455672609 -1.90E-03
    16 Broy./Diag. 0.10E+00    5.3     0.00401602       -25.2445219677  1.05E-03
    17 Broy./Diag. 0.10E+00    5.3     0.00087150       -25.2450281296 -5.06E-04
    18 Broy./Diag. 0.10E+00    5.3     0.00459088       -25.2458241203 -7.96E-04
    19 Broy./Diag. 0.10E+00    5.3     0.00196600       -25.2451280701  6.96E-04
    20 Broy./Diag. 0.10E+00    5.3     0.00209846       -25.2448984155  2.30E-04
    21 Broy./Diag. 0.10E+00    5.3     0.00070866       -25.2445860364  3.12E-04
    22 Broy./Diag. 0.10E+00    5.4     0.00172190       -25.2440851224  5.01E-04
    23 Broy./Diag. 0.10E+00    5.3     0.00131909       -25.2441964105 -1.11E-04
    24 Broy./Diag. 0.10E+00    5.3     0.00248453       -25.2440168423  1.80E-04
    25 Broy./Diag. 0.10E+00    5.3     0.00097301       -25.2440135964  3.25E-06
    26 Broy./Diag. 0.10E+00    5.3     0.00068742       -25.2440781542 -6.46E-05
    27 Broy./Diag. 0.10E+00    5.3     0.00042558       -25.2439970276  8.11E-05
    28 Broy./Diag. 0.10E+00    5.3     0.00080943       -25.2436753107  3.22E-04
    29 Broy./Diag. 0.10E+00    5.3     0.00050383       -25.2434973907  1.78E-04
    30 Broy./Diag. 0.10E+00    5.3     0.00065560       -25.2434887661  8.62E-06
    31 Broy./Diag. 0.10E+00    5.3     0.00093528       -25.2434921073 -3.34E-06
    32 Broy./Diag. 0.10E+00    5.3     0.00018322       -25.2434918306  2.77E-07
    33 Broy./Diag. 0.10E+00    5.3     0.00004232       -25.2435250957 -3.33E-05
    34 Broy./Diag. 0.10E+00    5.3     0.00021970       -25.2435960673 -7.10E-05
    35 Broy./Diag. 0.10E+00    5.3     0.00003081       -25.2436038706 -7.80E-06
    36 Broy./Diag. 0.10E+00    5.3     0.00041497       -25.2435759309  2.79E-05
    37 Broy./Diag. 0.10E+00    5.3     0.00021358       -25.2435524699  2.35E-05
    38 Broy./Diag. 0.10E+00    5.3     0.00005997       -25.2435449448  7.53E-06
    39 Broy./Diag. 0.10E+00    5.3     0.00036049       -25.2435072439  3.77E-05
    40 Broy./Diag. 0.10E+00    5.4     0.00015083       -25.2434954958  1.17E-05
    41 Broy./Diag. 0.10E+00    5.3     0.00002920       -25.2434921391  3.36E-06
    42 Broy./Diag. 0.10E+00    5.3     0.00020156       -25.2434844522  7.69E-06
    43 Broy./Diag. 0.10E+00    5.3     0.00004478       -25.2434783213  6.13E-06
    44 Broy./Diag. 0.10E+00    5.3     0.00017083       -25.2434739150  4.41E-06
    45 Broy./Diag. 0.10E+00    5.3     0.00004545       -25.2434741087 -1.94E-07
    46 Broy./Diag. 0.10E+00    5.3     0.00001693       -25.2434733161  7.93E-07
    47 Broy./Diag. 0.10E+00    5.3     0.00001912       -25.2434708007  2.52E-06
    48 Broy./Diag. 0.10E+00    5.4     0.00002934       -25.2434699147  8.86E-07
    49 Broy./Diag. 0.10E+00    5.3     0.00003456       -25.2434722487 -2.33E-06
    50 Broy./Diag. 0.10E+00    5.3     0.00004928       -25.2434752391 -2.99E-06
    51 Broy./Diag. 0.10E+00    5.3     0.00002311       -25.2434750665  1.73E-07
    52 Broy./Diag. 0.10E+00    5.3     0.00002962       -25.2434737217  1.34E-06
    53 Broy./Diag. 0.10E+00    5.3     0.00000491       -25.2434737403 -1.86E-08
    54 Broy./Diag. 0.10E+00    5.3     0.00000909       -25.2434739392 -1.99E-07
    55 Broy./Diag. 0.10E+00    5.3     0.00000506       -25.2434732139  7.25E-07
    56 Broy./Diag. 0.10E+00    5.3     0.00000227       -25.2434726107  6.03E-07
    57 Broy./Diag. 0.10E+00    5.3     0.00000993       -25.2434725581  5.27E-08
    58 Broy./Diag. 0.10E+00    5.3     0.00000580       -25.2434723047  2.53E-07
    59 Broy./Diag. 0.10E+00    5.3     0.00000065       -25.2434719657  3.39E-07

  *** SCF run converged in    59 steps ***


  Electronic density on regular grids:         -4.1678119621        1.8321880379
  Core density on regular grids:                6.0000000000       -0.0000000000
  Hard and soft densities (Lebedev):          -10.7627923698       -8.9306036036
  Total Rho_soft + Rho1_hard - Rho1_soft       -6.0000007284
  Total charge density (r-space):              -0.0000007284
  Total Rho_soft + Rho0_soft (g-space):        -0.0000007511

  Overlap energy of the core charge distribution:               0.00000230416181
  Self energy of the core charge distribution:                -17.66281176767632
  Core Hamiltonian energy:                                     -6.27168601518334
  Hartree energy:                                               8.65323522468114
  Exchange-correlation energy:                                 -1.01773049744041
  Hartree-Fock Exchange energy:                                -1.03073411013106

  GAPW| Exc from hard and soft atomic rho1:                    -2.19387446373292
  GAPW| local Eh = 1 center integrals:                         -5.71987264040044

  Total energy:                                               -25.24347196572155

 !-----------------------------------------------------------------------------!
                     Mulliken Population Analysis

 #  Atom  Element  Kind  Atomic population                           Net charge
       1     B        1          5.423258                             -0.423258
       2     H        2          0.576742                              0.423258
 # Total charge                              6.000000                  0.000000

 !-----------------------------------------------------------------------------!

 !-----------------------------------------------------------------------------!
                           Hirshfeld Charges

  #Atom  Element  Kind  Ref Charge     Population                    Net charge
      1       B      1       5.000          5.413                        -0.413
      2       H      2       1.000          0.577                         0.423

  Total Charge                                                            0.011
 !-----------------------------------------------------------------------------!


 RI-RPA section
 --------------

  Used number of processes per group:                                          1
  Maximum allowed memory usage per MPI process:                      1024.00 MiB
  RI_INFO| Cholesky decomposition group size:                                  2
  RI_INFO| Number of groups for auxiliary basis functions                     24

  RI_INFO| RI metric:                                                    COULOMB
  RI_INFO| Number of auxiliary basis functions:                               91
  GENERAL_INFO| Number of basis functions:                                    32
  GENERAL_INFO| Number of occupied orbitals:                                   3
  GENERAL_INFO| Number of virtual orbitals:                                   29
  RI_INFO| Total memory for (ia|K) integrals:                           0.06 MiB
  RI_INFO| Total memory for G0W0-(nm|K) integrals:                      0.71 MiB
  RI_INFO| Total memory for (ij|K) integrals:                           0.01 MiB
  RI_INFO| Total memory for (ab|K) integrals:                           0.58 MiB
  RI_INFO| Group size for frequency integration:                              24
  INTEG_INFO| Clenshaw-Curtius quadrature
  INTEG_INFO| Number of integration points:                                  100
  INTEG_INFO| Number of integration points per RPA group:                    100
  MATRIX_INFO| Number row processes:                                           6
  MATRIX_INFO| Number column processes:                                        4
  MATRIX_INFO| Row block size:                                                 7
  MATRIX_INFO| Column block size:                                             10
  INTEG_INFO| Scaling parameter:                                         0.20000
  INTEG_INFO| Started with Integration point   1 of 100
  INTEG_INFO| Started with Integration point   2 of 100
  INTEG_INFO| Started with Integration point   3 of 100
  INTEG_INFO| Started with Integration point   4 of 100
  INTEG_INFO| Started with Integration point   5 of 100
  INTEG_INFO| Started with Integration point   6 of 100
  INTEG_INFO| Started with Integration point   7 of 100
  INTEG_INFO| Started with Integration point   8 of 100
  INTEG_INFO| Started with Integration point   9 of 100
  INTEG_INFO| Started with Integration point  10 of 100
  INTEG_INFO| Started with Integration point  11 of 100
  INTEG_INFO| Started with Integration point  12 of 100
  INTEG_INFO| Started with Integration point  13 of 100
  INTEG_INFO| Started with Integration point  14 of 100
  INTEG_INFO| Started with Integration point  15 of 100
  INTEG_INFO| Started with Integration point  16 of 100
  INTEG_INFO| Started with Integration point  17 of 100
  INTEG_INFO| Started with Integration point  18 of 100
  INTEG_INFO| Started with Integration point  19 of 100
  INTEG_INFO| Started with Integration point  20 of 100
  INTEG_INFO| Started with Integration point  21 of 100
  INTEG_INFO| Started with Integration point  22 of 100
  INTEG_INFO| Started with Integration point  23 of 100
  INTEG_INFO| Started with Integration point  24 of 100
  INTEG_INFO| Started with Integration point  25 of 100
  INTEG_INFO| Started with Integration point  26 of 100
  INTEG_INFO| Started with Integration point  27 of 100
  INTEG_INFO| Started with Integration point  28 of 100
  INTEG_INFO| Started with Integration point  29 of 100
  INTEG_INFO| Started with Integration point  30 of 100
  INTEG_INFO| Started with Integration point  31 of 100
  INTEG_INFO| Started with Integration point  32 of 100
  INTEG_INFO| Started with Integration point  33 of 100
  INTEG_INFO| Started with Integration point  34 of 100
  INTEG_INFO| Started with Integration point  35 of 100
  INTEG_INFO| Started with Integration point  36 of 100
  INTEG_INFO| Started with Integration point  37 of 100
  INTEG_INFO| Started with Integration point  38 of 100
  INTEG_INFO| Started with Integration point  39 of 100
  INTEG_INFO| Started with Integration point  40 of 100
  INTEG_INFO| Started with Integration point  41 of 100
  INTEG_INFO| Started with Integration point  42 of 100
  INTEG_INFO| Started with Integration point  43 of 100
  INTEG_INFO| Started with Integration point  44 of 100
  INTEG_INFO| Started with Integration point  45 of 100
  INTEG_INFO| Started with Integration point  46 of 100
  INTEG_INFO| Started with Integration point  47 of 100
  INTEG_INFO| Started with Integration point  48 of 100
  INTEG_INFO| Started with Integration point  49 of 100
  INTEG_INFO| Started with Integration point  50 of 100
  INTEG_INFO| Started with Integration point  51 of 100
  INTEG_INFO| Started with Integration point  52 of 100
  INTEG_INFO| Started with Integration point  53 of 100
  INTEG_INFO| Started with Integration point  54 of 100
  INTEG_INFO| Started with Integration point  55 of 100
  INTEG_INFO| Started with Integration point  56 of 100
  INTEG_INFO| Started with Integration point  57 of 100
  INTEG_INFO| Started with Integration point  58 of 100
  INTEG_INFO| Started with Integration point  59 of 100
  INTEG_INFO| Started with Integration point  60 of 100
  INTEG_INFO| Started with Integration point  61 of 100
  INTEG_INFO| Started with Integration point  62 of 100
  INTEG_INFO| Started with Integration point  63 of 100
  INTEG_INFO| Started with Integration point  64 of 100
  INTEG_INFO| Started with Integration point  65 of 100
  INTEG_INFO| Started with Integration point  66 of 100
  INTEG_INFO| Started with Integration point  67 of 100
  INTEG_INFO| Started with Integration point  68 of 100
  INTEG_INFO| Started with Integration point  69 of 100
  INTEG_INFO| Started with Integration point  70 of 100
  INTEG_INFO| Started with Integration point  71 of 100
  INTEG_INFO| Started with Integration point  72 of 100
  INTEG_INFO| Started with Integration point  73 of 100
  INTEG_INFO| Started with Integration point  74 of 100
  INTEG_INFO| Started with Integration point  75 of 100
  INTEG_INFO| Started with Integration point  76 of 100
  INTEG_INFO| Started with Integration point  77 of 100
  INTEG_INFO| Started with Integration point  78 of 100
  INTEG_INFO| Started with Integration point  79 of 100
  INTEG_INFO| Started with Integration point  80 of 100
  INTEG_INFO| Started with Integration point  81 of 100
  INTEG_INFO| Started with Integration point  82 of 100
  INTEG_INFO| Started with Integration point  83 of 100
  INTEG_INFO| Started with Integration point  84 of 100
  INTEG_INFO| Started with Integration point  85 of 100
  INTEG_INFO| Started with Integration point  86 of 100
  INTEG_INFO| Started with Integration point  87 of 100
  INTEG_INFO| Started with Integration point  88 of 100
  INTEG_INFO| Started with Integration point  89 of 100
  INTEG_INFO| Started with Integration point  90 of 100
  INTEG_INFO| Started with Integration point  91 of 100
  INTEG_INFO| Started with Integration point  92 of 100
  INTEG_INFO| Started with Integration point  93 of 100
  INTEG_INFO| Started with Integration point  94 of 100
  INTEG_INFO| Started with Integration point  95 of 100
  INTEG_INFO| Started with Integration point  96 of 100
  INTEG_INFO| Started with Integration point  97 of 100
  INTEG_INFO| Started with Integration point  98 of 100
  INTEG_INFO| Started with Integration point  99 of 100
  INTEG_INFO| Started with Integration point 100 of 100
  PERFORMANCE| Average DGEMM flop rate (Gflops / MPI rank):                 0.06
  
  
  ******************************************************************************
  **                                                                          **
  **                        GW QUASIPARTICLE ENERGIES                         **
  **                                                                          **
  ******************************************************************************
   
   
  The GW quasiparticle energies are calculated according to: 
   
                      E_GW = E_SCF + Sigc(E_GW) + Sigx - vxc 
   
  Upper equation is solved self-consistently for E_GW, see Eq. (12) in J. Phys.
  Chem. Lett. 9, 306 (2018), doi: 10.1021/acs.jpclett.7b02740
  
  
  ------------
  G0W0 results
  ------------
   
  Molecular orbital   E_SCF (eV)       Sigc (eV)   Sigx-vxc (eV)       E_GW (eV)
     1 ( occ )         -187.3866         -0.5859        -13.3858       -201.3583
     2 ( occ )          -13.5991          1.0324         -3.6854        -16.2522
     3 ( occ )           -6.6720          0.0884         -2.4964         -9.0801
     4 ( vir )           -2.3720         -1.3997          4.1302          0.3585
     5 ( vir )           -2.3720         -1.3997          4.1302          0.3585
     6 ( vir )            0.4271         -0.2684          1.2193          1.3779
     7 ( vir )            1.1003         -0.1396          0.7420          1.7027
     8 ( vir )            1.3396         -0.3173          1.0945          2.1169
     9 ( vir )            1.3396         -0.3173          1.0945          2.1169
    10 ( vir )            2.4817         -0.2679          1.2241          3.4379
    11 ( vir )            4.5332         -0.9399          2.9094          6.5028
    12 ( vir )            5.1449         -0.5228          2.3936          7.0157
    13 ( vir )            5.1449         -0.5228          2.3936          7.0157
    14 ( vir )            5.4036         -0.5509          2.1921          7.0448
    15 ( vir )            5.4036         -0.5509          2.1921          7.0447
    16 ( vir )            7.1793         -0.8033          2.5181          8.8940
    17 ( vir )            8.9903         -0.6961          2.1733         10.4675
    18 ( vir )           10.2420         -1.8618          4.2313         12.6115
    19 ( vir )           10.2420         -1.8615          4.2313         12.6118
    20 ( vir )           11.2816         -1.0160          3.0051         13.2706
    21 ( vir )           11.2816         -1.0158          3.0051         13.2708
    22 ( vir )           14.7507         -1.5710          4.8801         18.0598
    23 ( vir )           18.4441         -2.2740          4.1212         20.2912
    24 ( vir )           23.5865         -4.9213          5.2167         23.8819
    25 ( vir )           23.5865         -4.9252          5.2166         23.8780
    26 ( vir )           23.6049         -1.2803          5.3517         27.6762
    27 ( vir )           23.6049         -1.2634          5.3517         27.6931
    28 ( vir )           25.2194         -1.5469          4.8183         28.4908
    29 ( vir )           34.1947          2.0182          6.3850         42.5978
    30 ( vir )           48.5334          0.3748          6.7772         55.6854
    31 ( vir )           48.5334          0.3555          6.7772         55.6661
    32 ( vir )           58.6893          1.6421          8.0122         68.3435
   
  G0W0 HOMO-LUMO gap (eV)                                                 9.4386
  
  ------------------------------------------------------------------------------
  
 *******************************************************************************
 **                                                                           **
 **           Bethe Salpeter equation (BSE) for excitation energies           **
 **               solved without Tamm-Dancoff approximation (TDA)             **
 **                                                                           **
 *******************************************************************************
  
 BSE| No cutoff given for occupied orbitals
 BSE| No cutoff given for empty orbitals
 BSE| First occupied index                                                     1
 BSE| Last empty index (not MO index!)                                        29
 BSE| Energy of first occupied index [eV]                               -201.358
 BSE| Energy of last empty index [eV]                                     68.343
 BSE| Energy difference of first occupied index to HOMO [eV]             192.278
 BSE| Energy difference of last empty index to LUMO [eV]                  67.985
 BSE| Number of GW-corrected occupied MOs                                      3
 BSE| Number of GW-corrected empty MOs                                        29
 BSE|
 BSE| No truncation of BSE matrices applied
 BSE|
 BSE| Total peak memory estimate from BSE [GB]                         5.639E-04
 BSE| Peak memory estimate per MPI rank from BSE [GB]                      0.000
 BSE|
 BSE| Diagonalizing aux. matrix with size of A. This will take around 0.E+00 s.
 BSE| Diagonalizing C. This will take around 0.E+00 s.
 BSE|
 BSE|
 BSE| **************************************************************************
 BSE| *      Full ("ABBA") Bethe Salpeter equation (BSE) (i.e. without TDA)    *
 BSE| **************************************************************************
 BSE|
 BSE| The excitations are calculated by diagonalizing the BSE without the TDA:
 BSE|
[...]
 MP_Sync               725
 MP_Alltoall          1663              109226112.
 MP_SendRecv          2809                 530400.
 MP_ISendRecv         5566                 270944.
 MP_Wait             16871
 MP_comm_split         113
 MP_ISend            10529                1969619.
 MP_IRecv            10586                1959014.
 -------------------------------------------------------------------------------


 -------------------------------------------------------------------------------
 -                                                                             -
 -                           R E F E R E N C E S                               -
 -                                                                             -
 -------------------------------------------------------------------------------
 
 CP2K version 2025.1 (Development Version), the CP2K developers group (2025).
 CP2K is freely available from https://www.cp2k.org/ .
 
 T. D. Kuehne, M. Iannuzzi, M. Del Ben, V. V. Rybkin, P. Seewald, F. Stein, T. 
 Laino, R. Z. Khaliullin, O. Schuett, F. Schiffmann, D. Golze, J. Wilhelm, S. 
 Chulkov, M. H. Bani-Hashemian, V. Weber, U. Borstnik, M. Taillefumier, A. S. 
 Jakobovits, A. Lazzaro, H. Pabst, T. Mueller, R. Schade, M. Guidon, S. 
 Andermatt, N. Holmberg, G. K. Schenter, A. Hehn, A. Bussy, F. Belleflamme, G. 
 Tabacchi, A. Gloess, M. Lass, I. Bethune, C. J. Mundy, C. Plessl, M. Watkins, 
 J. VandeVondele, M. Krack, J. Hutter.
 J. Chem. Phys. 152, 194103 (2020).
 CP2K: An electronic structure and molecular dynamics software package - 
 Quickstep: Efficient and accurate electronic structure calculations.
 https://doi.org/10.1063/5.0007045

 J. Wilhelm, D. Golze, L. Talirz, J. Hutter, C. A. Pignedoli.
 J. Phys. Chem. Lett. 9, 306-312 (2018).
 Toward GW calculations on thousands of atoms.
 https://doi.org/10.1021/acs.jpclett.7b02740

 J. Wilhelm, J. Hutter.
 Phys. Rev. B 95, 235123 (2017).
 Periodic GW calculations in the Gaussian and plane-waves scheme.
 https://doi.org/10.1103/PhysRevB.95.235123

 O. Schuett, P. Messmer, J. Hutter, J. VandeVondele.
 Electronic Structure Calculations on Graphics Processing Units, 173-190 (2016).
 GPU-Accelerated Sparse Matrix-Matrix Multiplication for Linear Scaling Density 
 Functional Theory.
 https://doi.org/10.1002/9781118670712.ch8

 J. Wilhelm, M. Del Ben, J. Hutter.
 J. Chem. Theory Comput. 12, 3623-3635 (2016).
 GW in the Gaussian and plane waves scheme with application to linear acenes.
 https://doi.org/10.1021/acs.jctc.6b00380

 M. Del Ben, O. Schuett, T. Wentz, P. Messmer, J. Hutter, J. VandeVondele.
 Comput. Phys. Commun. 187, 120-129 (2015).
 Enabling simulation at the fifth rung of DFT: Large scale RPA calculations with 
 excellent time to solution.
 https://doi.org/10.1016/j.cpc.2014.10.021

 J. Hutter, M. Iannuzzi, F. Schiffmann, J. VandeVondele.
 WIREs Comput Mol Sci. 4, 15-25 (2014).
 CP2K: atomistic simulations of condensed matter systems.
 https://doi.org/10.1002/wcms.1159

 U. Borstnik, J. VandeVondele, V. Weber, J. Hutter.
 Parallel Comput. 40, 47-58 (2014).
 Sparse matrix multiplication: The distributed block-compressed sparse row 
 library.
 https://doi.org/10.1016/j.parco.2014.03.012

 M. Del Ben, J. Hutter, J. VandeVondele.
 J. Chem. Theory Comput. 9, 2654-2671 (2013).
 Electron Correlation in the Condensed Phase from a Resolution of Identity 
 Approach Based on the Gaussian and Plane Waves Scheme.
 https://doi.org/10.1021/ct4002202

 M. Del Ben, J. Hutter, J. VandeVondele.
 J. Chem. Theory Comput. 8, 4177-4188 (2012).
 Second-Order Moller-Plesset Perturbation Theory in the Condensed Phase: An 
 Efficient and Massively Parallel Gaussian and Plane Waves Approach.
 https://doi.org/10.1021/ct300531w

 M. Guidon, J. Hutter, J. VandeVondele.
 J. Chem. Theory Comput. 5, 3010-3021 (2009).
 Robust Periodic Hartree-Fock Exchange for Large-Scale Simulations Using 
 Gaussian Basis Sets.
 https://doi.org/10.1021/ct900494g

 M. Guidon, F. Schiffmann, J. Hutter, J. VandeVondele.
 J. Chem. Phys. 128, 214104 (2008).
 Ab initio molecular dynamics using hybrid density functionals.
 https://doi.org/10.1063/1.2931945

 L. Genovese, T. Deutsch, S. Goedecker.
 J. Chem. Phys. 127, 054704 (2007).
 Efficient and accurate three-dimensional Poisson solver for surface problems.
 https://doi.org/10.1063/1.2754685

 J. VandeVondele, J. Hutter.
 J. Chem. Phys. 127, 114105 (2007).
 Gaussian basis sets for accurate calculations on molecular systems in gas and 
 condensed phases.
 https://doi.org/10.1063/1.2770708

 L. Genovese, T. Deutsch, A. Neelov, S. Goedecker, G. Beylkin.
 J. Chem. Phys. 125, 074105 (2006).
 Efficient solution of Poisson's equation with free boundary conditions.
 https://doi.org/10.1063/1.2335442

 M. Frigo, S. G. Johnson.
 Proc. IEEE 93, 216-231 (2005).
 The design and implementation of FFTW3.
 https://doi.org/10.1109/JPROC.2004.840301

 M. Krack, M. Parrinello.
 Phys. Chem. Chem. Phys. 2, 2105-2112 (2000).
 All-electron ab-initio molecular dynamics.
 https://doi.org/10.1039/b001167n

 G. Lippert, J. Hutter, M. Parrinello.
 Theor. Chem. Acc. 103, 124-140 (1999).
 The Gaussian and augmented-plane-wave density functional method for ab initio 
 molecular dynamics simulations.
 https://doi.org/10.1007/s002140050523

 J. P. Perdew, K. Burke, M. Ernzerhof.
 Phys. Rev. Lett. 77, 3865-3868 (1996).
 Generalized gradient approximation made simple.
 https://doi.org/10.1103/PhysRevLett.77.3865


 -------------------------------------------------------------------------------
 -                                                                             -
 -                                T I M I N G                                  -
 -                                                                             -
 -------------------------------------------------------------------------------
 SUBROUTINE                       CALLS  ASD         SELF TIME        TOTAL TIME
                                MAXIMUM       AVERAGE  MAXIMUM  AVERAGE  MAXIMUM
 CP2K                                 1  1.0    0.044    0.067  317.966  317.966
 qs_energies                          1  2.0    0.000    0.001  316.056  316.277
 scf_env_do_scf                       1  3.0    0.000    0.000  311.791  311.792
 scf_env_do_scf_inner_loop           59  4.0    0.002    0.004  311.791  311.791
 qs_ks_build_kohn_sham_matrix        60  7.0    0.010    0.011  235.835  235.840
 qs_ks_update_qs_env                 59  5.0    0.000    0.000  233.427  233.432
 rebuild_ks_matrix                   59  6.0    0.000    0.000  233.422  233.427
 fft_wrap_pw1pw2                   1251  9.9    0.030    0.039  141.874  143.478
 fft_wrap_pw1pw2_250                891 11.1    6.309    7.137  137.580  139.434
 fft3d_ps                          1251 11.9   61.618   64.383  111.535  113.145
 pw_poisson_solve                    60  8.0    2.631    2.720   96.887   96.912
 qs_vxc_create                       60  8.0    0.001    0.001   85.195   85.196
 xc_vxc_pw_create                    59  9.0    1.521    1.615   85.194   85.195
 ps_wavelet_solve                    60  9.0   54.075   57.719   63.767   63.859
 xc_pw_derive                       354 11.0    0.005    0.005   61.832   63.406
 mp_alltoall_d54                     60 10.0    5.877   49.884    5.877   49.884
 xc_rho_set_and_dset_create          59 10.0    1.187    1.416   42.329   43.227
 gspace_mixing                       58  5.0    1.133    1.143   42.653   42.653
 xc_pw_divergence                    59 10.0    0.003    0.003   40.681   42.011
 mp_alltoall_z22v                  1251 13.9   30.462   39.868   30.462   39.868
 qs_rho_update_rho_low               60  5.0    0.001    0.001   36.062   36.062
 calculate_rho_elec                  60  6.0    1.172    1.183   36.039   36.039
 broyden_mixing                      58  6.0   31.845   32.419   32.433   32.608
 x_to_yz                            654 13.1   13.230   13.457   28.196   29.014
 yz_to_x                            597 12.8    6.208    7.398   21.704   27.763
 density_rs2pw                       60  7.0    0.004    0.005   26.806   27.164
 sum_up_and_integrate                60  8.0    0.001    0.001   19.052   19.084
 integrate_v_rspace                  60  9.0    0.001    0.002   18.686   18.741
 potential_pw2rs                     60 10.0    0.053    0.059   18.363   18.412
 prepare_gapw_den                    60  8.0    0.001    0.001   14.884   15.104
 put_rho0_on_grid                    60  9.0    1.175    1.187   14.689   14.909
 transfer_pw2rs                     301 10.6    0.005    0.006   10.720   10.817
 pw_scatter_p                       654 12.1   10.324   10.512   10.324   10.512
 transfer_rs2pw                     301  8.4    0.008    0.011    9.156    9.350
 pw_gather_p                        597 11.8    8.555    9.234    8.555    9.234
 xc_functional_eval                 295 10.9    0.001    0.001    8.407    9.208
 pbe_lda_eval                       295 11.9    8.406    9.208    8.406    9.208
 mp_waitany                       10136 11.5    7.387    8.086    7.387    8.086
 transfer_pw2rs_250                 121 10.9    2.912    3.070    7.900    8.083
 grid_collocate_task_list            60  7.0    7.630    7.946    7.630    7.946
 pw_derive                          534 11.3    7.098    7.470    7.098    7.470
 transfer_rs2pw_250                 121 10.0    3.044    3.203    6.860    7.029
 integrate_vhg0_rspace               60  8.0    0.016    0.021    5.008    5.017
 mp_sum_d                          1498  6.0    2.836    4.771    2.836    4.771
 mp_alltoall_d45                     61 10.0    3.176    4.294    3.176    4.294
 cp2k_distribution_to_z_slices       60  9.0    2.375    2.479    3.763    4.184
 fft_wrap_pw1pw2_90                 120 10.5    0.185    0.277    3.550    4.148
 pw_copy                            895 10.6    3.794    4.002    3.794    4.002
 pw_poisson_set                      61  8.9    0.002    0.002    3.543    3.568
 mp_alltoall_d11v                  1128  9.5    2.488    3.507    2.488    3.507
 pw_copy_to_array                   597 11.8    3.155    3.465    3.155    3.465
 hfx_ks_matrix                       60  8.0    0.002    0.003    3.264    3.338
 integrate_four_center               60  9.0    1.203    2.526    3.261    3.334
 mp2_main                             1  3.0    0.000    0.001    3.033    3.254
 pw_axpy                            595  9.3    2.613    2.853    2.613    2.853
 rs_grid_zero                       302 11.1    2.465    2.562    2.465    2.562
 mp_sync                            725  9.4    1.354    2.545    1.354    2.545
 compute_vec_Sigma_x_minus_vxc_       1  4.0    0.000    0.000    2.417    2.417
 pw_integral_ab_c1d_c1d_gs           60  9.0    1.786    1.980    2.122    2.228
 pw_copy_from_array                 654 12.1    1.747    2.062    1.747    2.062
 pw_poisson_rebuild                  60  9.0    0.000    0.000    1.820    1.848
 ps_wavelet_create                    1 10.0    0.000    0.000    1.820    1.848
 RS_z_slice_distribution              1 11.0    1.662    1.726    1.820    1.848
 transfer_pw2rs_90                   60 12.0    0.434    0.465    1.359    1.462
 mp_isend_dv                      10167 11.6    0.789    1.277    0.789    1.277
 pw_zero                            356 10.3    1.210    1.275    1.210    1.275
 transfer_pw2rs_30                   60 12.0    0.669    0.724    1.121    1.174
 transfer_rs2pw_90                   60  9.0    0.346    0.368    1.049    1.126
 mp_sum_dm                          424  7.6    0.578    1.076    0.578    1.076
 init_scf_run                         1  3.0    0.000    0.000    1.022    1.023
 scf_env_initial_rho_setup            1  4.0    0.000    0.000    1.017    1.018
 transfer_rs2pw_30                   60  9.0    0.514    0.539    0.988    1.002
 mp_waitall_1                     11028 12.1    0.735    0.958    0.735    0.958
 mp_max_i                           550  2.8    0.462    0.885    0.462    0.885
 qs_init_subsys                       1  2.0    0.003    0.004    0.858    0.859
 qs_env_setup                         1  3.0    0.000    0.000    0.851    0.852
 qs_env_rebuild_pw_env                2  3.5    0.000    0.000    0.850    0.851
 pw_env_rebuild                       1  5.0    0.001    0.001    0.849    0.850
 pw_grid_setup                        4  6.0    0.000    0.000    0.840    0.840
 pw_grid_setup_internal               4  7.0    0.020    0.024    0.840    0.840
 scale_and_distribute               120 10.0    0.797    0.834    0.797    0.834
 calculate_vxc_atom                  60  8.0    0.021    0.129    0.821    0.821
 Vh_1c_gg_integrals                  60  8.0    0.006    0.051    0.218    0.748
 create_qs_kind_set                   1  2.0    0.000    0.000    0.716    0.717
 read_qs_kind                         2  3.0    0.401    0.409    0.716    0.717
 pw_grid_sort                         4  8.0    0.472    0.477    0.668    0.676
 mp_sendrecv_dv                    2760 10.0    0.629    0.653    0.629    0.653
 mp_irecv_dm3                      1448 11.5    0.376    0.651    0.376    0.651
 gaVxcgb_GC                         118  9.0    0.026    0.615    0.026    0.615
 fft_wrap_pw1pw2_30                 120 10.5    0.029    0.034    0.579    0.597
 mp_isend_dm3                      1448 11.5    0.348    0.545    0.348    0.545
 mp2_gpw_main                         1  4.0    0.000    0.000    0.434    0.444
 powell_optimize                 175766 11.0    0.424    0.433    0.424    0.433
 pw_scale                           237  9.5    0.355    0.427    0.355    0.427
 calc_screening_functions             1 10.0    0.160    0.161    0.401    0.406
 mp_sum_i                            17  9.9    0.222    0.386    0.222    0.386
 restraint_control                    1  2.0    0.000    0.000    0.221    0.386
 mp2_main_alloc_hfx                   1  4.0    0.164    0.386    0.164    0.386
 mp_sum_dv                         2011 11.3    0.208    0.363    0.208    0.363
 transfer_pw2rs_10                   60 12.0    0.143    0.149    0.335    0.362
 qs_scf_new_mos                      59  5.0    0.001    0.001    0.353    0.356
 rpa_ri_compute_en                    1  5.0    0.000    0.000    0.329    0.329
 integrate_four_center_main          60 10.0    0.017    0.185    0.024    0.328
 rs_gather_matrices                  60 10.0    0.001    0.003    0.245    0.327
 rpa_num_int                          1  6.0    0.001    0.001    0.325    0.326
 parser_read_line                 86138  4.0    0.029    0.031    0.314    0.319
 mp_isendrecv_dv                   5520 12.0    0.170    0.318    0.170    0.318
 grid_integrate_task_list            60 10.0    0.076    0.318    0.076    0.318
 mixing_init                          1  5.0    0.288    0.295    0.294    0.295
 parser_read_line_low                96  5.0    0.026    0.133    0.285    0.290
 calc_pair_dist_radii                 1 10.0    0.091    0.091    0.273    0.277
 broadcast_input_information         96  6.0    0.064    0.077    0.258    0.273
 transfer_rs2pw_10                   60  9.0    0.096    0.102    0.251    0.256
 xc_pw_smooth                        59 10.0    0.000    0.000    0.161    0.206
 sort_shells                          4  9.0    0.196    0.198    0.196    0.198
 calculate_rho_atom                 120  9.0    0.096    0.183    0.096    0.183
 compute_GW_self_energy             100  7.0    0.001    0.001    0.161    0.182
 eigensolver_symm                    60  6.0    0.002    0.002    0.180    0.180
 cp_fm_syevd                         65  7.0    0.000    0.000    0.178    0.178
 scf_post_calculation_gpw             1  3.0    0.000    0.000    0.155    0.157
 write_available_results              1  4.0    0.000    0.000    0.155    0.157
 write_mo_free_results                1  5.0    0.026    0.029    0.155    0.157
 compute_GW_self_energy_deep        100  8.0    0.075    0.095    0.127    0.148
 fft_wrap_pw1pw2_10                 120 10.5    0.007    0.008    0.135    0.148
 cp_fm_redistribute_end              65  8.0    0.082    0.143    0.083    0.144
 integrate_four_center_bin         4699 11.0    0.007    0.143    0.007    0.143
 calculate_dm_sparse                 59  6.0    0.000    0.000    0.129    0.131
 cp_dbcsr_plus_fm_fm_t               59  7.0    0.001    0.001    0.129    0.130
 cp_fm_syevd_base                    65  8.0    0.061    0.123    0.061    0.123
 mp_bcast_i_src                     384  7.0    0.103    0.122    0.103    0.122
 dbcsr_multiply_generic              96  8.1    0.004    0.005    0.110    0.113
 mp_irecv_dv                      10161 11.6    0.073    0.113    0.073    0.113
 pw_grid_assign                       4  8.0    0.104    0.107    0.108    0.108
 rpa_num_int_RPA_matrix_operati     100  7.0    0.001    0.002    0.104    0.104
 parallel_gemm_fm                   338  8.6    0.000    0.000    0.095    0.097
 parallel_gemm_fm_gemm              338  9.6    0.000    0.000    0.095    0.096
 cp_fm_gemm                         338 10.6    0.094    0.096    0.094    0.096
 mp_bcast_am_src                     96  7.0    0.077    0.079    0.088    0.096
 mp2_ri_gpw_compute_in                1  5.0    0.000    0.000    0.092    0.092
 mp2_ri_gpw_compute_in_loop           1  6.0    0.000    0.000    0.088    0.089
 calc_mat_Q                         100  8.0    0.000    0.000    0.074    0.076
 contract_S_to_Q                    100  9.0    0.000    0.000    0.073    0.075
 contract_B_L                         4  7.0    0.001    0.001    0.070    0.074
 vxc_of_r_new                       236  9.0    0.000    0.011    0.003    0.071
 hirshfeld_integration                1  6.0    0.000    0.001    0.065    0.066
 calculate_hirshfeld_normalizat       1  6.0    0.000    0.002    0.063    0.064
 dbcsr_complete_redistribute        208  8.4    0.008    0.010    0.062    0.063
 make_m2s                           192  9.1    0.003    0.003    0.056    0.060
 copy_dbcsr_to_fm                    86  6.5    0.002    0.002    0.056    0.059
 cp_fm_to_fm_submat_general         112 10.1    0.054    0.057    0.054    0.057
 qs_energies_init_hamiltonians        1  3.0    0.000    0.000    0.053    0.053
 build_core_hamiltonian_matrix        1  4.0    0.000    0.000    0.049    0.049
 overlap_condnum                      1  5.0    0.000    0.000    0.047    0.048
 dbt_total                            8  8.0    0.000    0.000    0.046    0.046
 offload_free_buffer                 68  8.3    0.034    0.043    0.034    0.043
 dbt_contract                         4  9.0    0.001    0.001    0.042    0.043
 mp_sum_l                           884  5.9    0.029    0.041    0.029    0.041
 copy_fm_to_dbcsr                   122  8.1    0.000    0.000    0.035    0.036
 start_bse_calculation                1  7.0    0.000    0.000    0.035    0.035
 multiply_cannon                     96  9.1    0.007    0.008    0.034    0.035
 pw_grid_remap                        4  8.0    0.014    0.014    0.029    0.035
 cp_fm_redistribute_start            65  8.0    0.027    0.028    0.033    0.034
 arnoldi_conjugate_gradient           5  6.0    0.001    0.001    0.033    0.033
 mp_cart_create                     350 10.5    0.029    0.033    0.029    0.033
 -------------------------------------------------------------------------------

 The number of warnings for this run is : 1
 
 -------------------------------------------------------------------------------
  **** **** ******  **  PROGRAM ENDED AT                 2025-03-11 07:16:05.473
 ***** ** ***  *** **   PROGRAM RAN ON                              i05r10c02s06
 **    ****   ******    PROGRAM RAN BY                                   di38fab
 ***** **    ** ** **   PROGRAM PROCESS ID                               2816542
  **** **  *******  **  PROGRAM STOPPED IN /hppfs/scratch/04/di38fab/05_MOL/W4-1
                                           1+ALK/bh/aug-cc-pVDZ
