 DBCSR| CPU Multiplication driver                                           BLAS (U)
 DBCSR| Multrec recursion limit                                              512 (U)
 DBCSR| Multiplication stack size                                           1000 (D)
 DBCSR| Maximum elements for images                                    UNLIMITED (U)
 DBCSR| Multiplicative factor virtual images                                   1 (U)
 DBCSR| Use multiplication densification                                       T (D)
 DBCSR| Multiplication size stacks                                             3 (U)
 DBCSR| Use memory pool for CPU allocation                                     F (U)
 DBCSR| Number of 3D layers                                               SINGLE (U)
 DBCSR| Use MPI memory allocation                                              F (U)
 DBCSR| Use RMA algorithm                                                      F (U)
 DBCSR| Use Communication thread                                               T (U)
 DBCSR| Communication thread load                                             75 (D)
 DBCSR| MPI: My process id                                                     0
 DBCSR| MPI: Number of processes                                              48
 DBCSR| OMP: Current number of threads                                         4
 DBCSR| OMP: Max number of threads                                             4
 DBCSR| Split modifier for TAS multiplication algorithm                  1.0E+00 (U)


  **** **** ******  **  PROGRAM STARTED AT               2025-03-18 23:36:37.817
 ***** ** ***  *** **   PROGRAM STARTED ON                          i03r05c02s07
 **    ****   ******    PROGRAM STARTED BY                               di38fab
 ***** **    ** ** **   PROGRAM PROCESS ID                               2736711
  **** **  *******  **  PROGRAM STARTED IN /hppfs/scratch/04/di38fab/05_MOL/W4-1
                                           1+ALK/li_h/aug-cc-pV5Z/GW+BSE

 CP2K| version string:                 CP2K version 2025.1 (Development Version)
 CP2K| source code revision number:                                  git:d2e611a
 CP2K| cp2kflags: omp libint fftw3 libxc parallel scalapack max_contr=4         
 CP2K| is freely available from                            https://www.cp2k.org/
 CP2K| Program compiled at                       Thu 06 Mar 2025 05:09:20 PM CET
 CP2K| Program compiled on                                               login02
 CP2K| Program compiled for                                        Supermuc-foss
 CP2K| Data directory path                  /hppfs/work/pn36zo/di38fab/cp2k/data
 CP2K| Input file name                                                    GW.inp

 GLOBAL| Force Environment number                                              1
 GLOBAL| Basis set file name            /hppfs/scratch/04/di38fab/04_TMD/BASIS_A
 GLOBAL| Potential file name            /hppfs/work/pn36zo/di38fab/cp2k/data/ALL
 GLOBAL| MM Potential file name                                     MM_POTENTIAL
 GLOBAL| Coordinate file name                                      __STD_INPUT__
 GLOBAL| Method name                                                        CP2K
 GLOBAL| Project name                                                       MoS2
 GLOBAL| Run type                                                         ENERGY
 GLOBAL| FFT library                                                       FFTW3
 GLOBAL| Diagonalization library                                       ScaLAPACK
 GLOBAL| DGEMM library                                                      BLAS
 GLOBAL| Orthonormality check for eigenvectors                          DISABLED
 GLOBAL| Matrix multiplication library                                 ScaLAPACK
 GLOBAL| All-to-all communication in single precision                          F
 GLOBAL| FFTs using library dependent lengths                                  F
 GLOBAL| Grid backend                                                       AUTO
 GLOBAL| Global print level                                               MEDIUM
 GLOBAL| MPI I/O enabled                                                       T
 GLOBAL| Total number of message passing processes                            48
 GLOBAL| Number of threads for this process                                    4
 GLOBAL| This output is from process                                           0
 GLOBAL| OpenMP stack size per thread (OMP_STACKSIZE)                    default
 GLOBAL| CPU model name             Intel(R) Xeon(R) Platinum 8174 CPU @ 3.10GHz

 MEMORY| system memory details [Kb]
 MEMORY|                        rank 0           min           max       average
 MEMORY| MemTotal             98436664      98436648      98436664      98436659
 MEMORY| MemFree              83931772      83858804      84161412      84010057
 MEMORY| Buffers                     0             0             0             0
 MEMORY| Cached                2407512       2396296       2416628       2409102
 MEMORY| Slab                  1243128       1180472       1256068       1228429
 MEMORY| SReclaimable           272616        264016        276848        271308
 MEMORY| MemLikelyFree        86611900      86526852      86842056      86690467


 *** Fundamental physical constants (SI units) ***

 *** Literature: B. J. Mohr and B. N. Taylor,
 ***             CODATA recommended values of the fundamental physical
 ***             constants: 2006, Web Version 5.1
 ***             http://physics.nist.gov/constants

 Speed of light in vacuum [m/s]                             2.99792458000000E+08
 Magnetic constant or permeability of vacuum [N/A**2]       1.25663706143592E-06
 Electric constant or permittivity of vacuum [F/m]          8.85418781762039E-12
 Planck constant (h) [J*s]                                  6.62606896000000E-34
 Planck constant (h-bar) [J*s]                              1.05457162825177E-34
 Elementary charge [C]                                      1.60217648700000E-19
 Electron mass [kg]                                         9.10938215000000E-31
 Electron g factor [ ]                                     -2.00231930436220E+00
 Proton mass [kg]                                           1.67262163700000E-27
 Fine-structure constant                                    7.29735253760000E-03
 Rydberg constant [1/m]                                     1.09737315685270E+07
 Avogadro constant [1/mol]                                  6.02214179000000E+23
 Boltzmann constant [J/K]                                   1.38065040000000E-23
 Atomic mass unit [kg]                                      1.66053878200000E-27
 Bohr radius [m]                                            5.29177208590000E-11

 *** Conversion factors ***

 [u] -> [a.u.]                                              1.82288848426455E+03
 [Angstrom] -> [Bohr] = [a.u.]                              1.88972613288564E+00
 [a.u.] = [Bohr] -> [Angstrom]                              5.29177208590000E-01
 [a.u.] -> [s]                                              2.41888432650478E-17
 [a.u.] -> [fs]                                             2.41888432650478E-02
 [a.u.] -> [J]                                              4.35974393937059E-18
 [a.u.] -> [N]                                              8.23872205491840E-08
 [a.u.] -> [K]                                              3.15774647902944E+05
 [a.u.] -> [kJ/mol]                                         2.62549961709828E+03
 [a.u.] -> [kcal/mol]                                       6.27509468713739E+02
 [a.u.] -> [Pa]                                             2.94210107994716E+13
 [a.u.] -> [bar]                                            2.94210107994716E+08
 [a.u.] -> [atm]                                            2.90362800883016E+08
 [a.u.] -> [eV]                                             2.72113838565563E+01
 [a.u.] -> [Hz]                                             6.57968392072181E+15
 [a.u.] -> [1/cm] (wave numbers)                            2.19474631370540E+05
 [a.u./Bohr**2] -> [1/cm]                                   5.14048714338585E+03
 

 CELL_TOP| Volume [angstrom^3]:                                     27000.000000
 CELL_TOP| Vector a [angstrom    30.000     0.000     0.000   |a| =    30.000000
 CELL_TOP| Vector b [angstrom     0.000    30.000     0.000   |b| =    30.000000
 CELL_TOP| Vector c [angstrom     0.000     0.000    30.000   |c| =    30.000000
 CELL_TOP| Angle (b,c), alpha [degree]:                                90.000000
 CELL_TOP| Angle (a,c), beta  [degree]:                                90.000000
 CELL_TOP| Angle (a,b), gamma [degree]:                                90.000000
 CELL_TOP| Numerically orthorhombic:                                         YES
 CELL_TOP| Periodicity                                                      NONE

 GENERATE|  Preliminary Number of Bonds generated:                             0
 GENERATE|  Achieved consistency in connectivity generation.

 CELL| Volume [angstrom^3]:                                         27000.000000
 CELL| Vector a [angstrom]:      30.000     0.000     0.000   |a| =    30.000000
 CELL| Vector b [angstrom]:       0.000    30.000     0.000   |b| =    30.000000
 CELL| Vector c [angstrom]:       0.000     0.000    30.000   |c| =    30.000000
 CELL| Angle (b,c), alpha [degree]:                                    90.000000
 CELL| Angle (a,c), beta  [degree]:                                    90.000000
 CELL| Angle (a,b), gamma [degree]:                                    90.000000
 CELL| Numerically orthorhombic:                                             YES
 CELL| Periodicity                                                          NONE

 CELL_REF| Volume [angstrom^3]:                                     27000.000000
 CELL_REF| Vector a [angstrom    30.000     0.000     0.000   |a| =    30.000000
 CELL_REF| Vector b [angstrom     0.000    30.000     0.000   |b| =    30.000000
 CELL_REF| Vector c [angstrom     0.000     0.000    30.000   |c| =    30.000000
 CELL_REF| Angle (b,c), alpha [degree]:                                90.000000
 CELL_REF| Angle (a,c), beta  [degree]:                                90.000000
 CELL_REF| Angle (a,b), gamma [degree]:                                90.000000
 CELL_REF| Numerically orthorhombic:                                         YES
 CELL_REF| Periodicity                                                      NONE

 *******************************************************************************
 *******************************************************************************
 **                                                                           **
 **     #####                         ##              ##                      **
 **    ##   ##            ##          ##              ##                      **
 **   ##     ##                       ##            ######                    **
 **   ##     ##  ##   ##  ##   #####  ##  ##   ####   ##    #####    #####    **
 **   ##     ##  ##   ##  ##  ##      ## ##   ##      ##   ##   ##  ##   ##   **
 **   ##  ## ##  ##   ##  ##  ##      ####     ###    ##   ######   ######    **
 **    ##  ###   ##   ##  ##  ##      ## ##      ##   ##   ##       ##        **
 **     #######   #####   ##   #####  ##  ##  ####    ##    #####   ##        **
 **           ##                                                    ##        **
 **                                                                           **
 **                                                ... make the atoms dance   **
 **                                                                           **
 **            Copyright (C) by CP2K developers group (2000-2025)             **
 **                      J. Chem. Phys. 152, 194103 (2020)                    **
 **                                                                           **
 *******************************************************************************

 DFT| Spin restricted Kohn-Sham (RKS) calculation                            RKS
 DFT| Multiplicity                                                             1
 DFT| Number of spin states                                                    1
 DFT| Charge                                                                   0
 DFT| Self-interaction correction (SIC)                                       NO
 DFT| Cutoffs: density                                              1.000000E-10
 DFT|          gradient                                             1.000000E-10
 DFT|          tau                                                  1.000000E-10
 DFT|          cutoff_smoothing_range                               0.000000E+00
 DFT| XC density smoothing                                                  NONE
 DFT| XC derivatives                                                          PW

 FUNCTIONAL| PBE:
 FUNCTIONAL| J.P.Perdew, K.Burke, M.Ernzerhof, Phys. Rev. Letter, vol. 77, n 18,
 FUNCTIONAL|  pp. 3865-3868, (1996)sx=0.750sc=1.000{spin unpolarized}           


 QS| Method:                                                                GAPW
 QS| Density plane wave grid type                        NON-SPHERICAL FULLSPACE
 QS| Number of grid levels:                                                    4
 QS| Density cutoff [a.u.]:                                                250.0
 QS| Multi grid cutoff [a.u.]: 1) grid level                               250.0
 QS|                           2) grid level                                83.3
 QS|                           3) grid level                                27.8
 QS|                           4) grid level                                 9.3
 QS| Grid level progression factor:                                          3.0
 QS| Relative density cutoff [a.u.]:                                        50.0
 QS| Interaction thresholds: eps_pgf_orb:                                1.0E-12
 QS|                         eps_filter_matrix:                          0.0E+00
 QS|                         eps_core_charge:                            1.0E-14
 QS|                         eps_rho_gspace:                             1.0E-12
 QS|                         eps_rho_rspace:                             1.0E-12
 QS|                         eps_gvg_rspace:                             1.0E-06
 QS|                         eps_ppl:                                    1.0E-02
 QS|                         eps_ppnl:                                   1.0E-08
 QS| GAPW|      One center basis from orbital basis primitives
 QS| GAPW|                   eps_fit:                                    1.0E-04
 QS| GAPW|                   eps_iso:                                    1.0E-12
 QS| GAPW|                   eps_svd:                                    1.0E-08
 QS| GAPW|                   eps_cpc:                                    1.0E-12
 QS| GAPW|   atom-r-grid: quadrature:                                     GC_LOG
 QS| GAPW|      atom-s-grid:  max l :                                         10
 QS| GAPW|      max_l_rho0 :                                                   2


 ATOMIC KIND INFORMATION

  1. Atomic kind: li                                    Number of atoms:       1

     Orbital Basis Set                                               aug-cc-pV5Z

       Number of orbital shell sets:                                          12
       Number of orbital shells:                                              27
       Number of primitive Cartesian functions:                               38
       Number of Cartesian basis functions:                                  182
       Number of spherical basis functions:                                  127
       Norm type:                                                              2

       Normalised Cartesian orbitals:

                        Set   Shell   Orbital            Exponent    Coefficient

                          1       1    1s                0.006100       0.015556

                          2       1    1px               0.006500       0.002631
                          2       1    1py               0.006500       0.002631
                          2       1    1pz               0.006500       0.002631

                          3       1    1px              19.663500       0.000000
                                                         4.623110       0.000000
                                                         1.413780       0.000000
                                                         0.473721       0.000000
                                                         0.176151       0.162666
                                                         0.072675       0.000000
                                                         0.032141       0.000000
                                                         0.014556       0.000000
                          3       1    1py              19.663500       0.000000
                                                         4.623110       0.000000
                                                         1.413780       0.000000
                                                         0.473721       0.000000
                                                         0.176151       0.162666
                                                         0.072675       0.000000
                                                         0.032141       0.000000
                                                         0.014556       0.000000
                          3       1    1pz              19.663500       0.000000
                                                         4.623110       0.000000
                                                         1.413780       0.000000
                                                         0.473721       0.000000
                                                         0.176151       0.162666
                                                         0.072675       0.000000
                                                         0.032141       0.000000
                                                         0.014556       0.000000

                          3       2    2px              19.663500       0.000000
                                                         4.623110       0.000000
                                                         1.413780       0.000000
                                                         0.473721       0.000000
                                                         0.176151       0.000000
                                                         0.072675       0.053786
                                                         0.032141       0.000000
                                                         0.014556       0.000000
                          3       2    2py              19.663500       0.000000
                                                         4.623110       0.000000
                                                         1.413780       0.000000
                                                         0.473721       0.000000
                                                         0.176151       0.000000
                                                         0.072675       0.053786
                                                         0.032141       0.000000
                                                         0.014556       0.000000
                          3       2    2pz              19.663500       0.000000
                                                         4.623110       0.000000
                                                         1.413780       0.000000
                                                         0.473721       0.000000
                                                         0.176151       0.000000
                                                         0.072675       0.053786
                                                         0.032141       0.000000
                                                         0.014556       0.000000

                          3       3    3px              19.663500       0.031872
                                                         4.623110       0.037347
                                                         1.413780       0.033337
                                                         0.473721       0.027564
                                                         0.176151       0.025158
                                                         0.072675       0.019368
                                                         0.032141       0.008571
                                                         0.014556       0.001124
                          3       3    3py              19.663500       0.031872
                                                         4.623110       0.037347
                                                         1.413780       0.033337
                                                         0.473721       0.027564
                                                         0.176151       0.025158
                                                         0.072675       0.019368
                                                         0.032141       0.008571
                                                         0.014556       0.001124
                          3       3    3pz              19.663500       0.031872
                                                         4.623110       0.037347
                                                         1.413780       0.033337
                                                         0.473721       0.027564
                                                         0.176151       0.025158
                                                         0.072675       0.019368
                                                         0.032141       0.008571
                                                         0.014556       0.001124

                          3       4    4px              19.663500       0.000000
                                                         4.623110       0.000000
                                                         1.413780       0.000000
                                                         0.473721       0.000000
                                                         0.176151       0.000000
                                                         0.072675       0.000000
                                                         0.032141       0.019398
                                                         0.014556       0.000000
                          3       4    4py              19.663500       0.000000
                                                         4.623110       0.000000
                                                         1.413780       0.000000
                                                         0.473721       0.000000
                                                         0.176151       0.000000
                                                         0.072675       0.000000
                                                         0.032141       0.019398
                                                         0.014556       0.000000
                          3       4    4pz              19.663500       0.000000
                                                         4.623110       0.000000
                                                         1.413780       0.000000
                                                         0.473721       0.000000
                                                         0.176151       0.000000
                                                         0.072675       0.000000
                                                         0.032141       0.019398
                                                         0.014556       0.000000

                          3       5    5px              19.663500       0.000000
                                                         4.623110       0.000000
                                                         1.413780       0.000000
                                                         0.473721       0.000000
                                                         0.176151       0.000000
                                                         0.072675       0.000000
                                                         0.032141       0.000000
                                                         0.014556       0.007207
                          3       5    5py              19.663500       0.000000
                                                         4.623110       0.000000
                                                         1.413780       0.000000
                                                         0.473721       0.000000
                                                         0.176151       0.000000
                                                         0.072675       0.000000
                                                         0.032141       0.000000
                                                         0.014556       0.007207
                          3       5    5pz              19.663500       0.000000
                                                         4.623110       0.000000
                                                         1.413780       0.000000
                                                         0.473721       0.000000
                                                         0.176151       0.000000
                                                         0.072675       0.000000
                                                         0.032141       0.000000
                                                         0.014556       0.007207

                          4       1    1s            29493.000000       0.028872
                                                      4417.101000       0.054448
                                                      1005.223000       0.094027
                                                       284.700900       0.153477
                                                        92.865430       0.237406
                                                        33.511790       0.344162
                                                        13.041800       0.450825
                                                         5.357536       0.500890
                                                         2.279338       0.434757
                                                         0.993990       0.245466
                                                         0.433471       0.054355
                                                         0.095566       0.000652
                                                         0.044657      -0.000145
                                                         0.020633       0.000032

                          4       2    2s            29493.000000       0.000000
                                                      4417.101000       0.000000
                                                      1005.223000       0.000000
                                                       284.700900       0.000000
                                                        92.865430       0.000000
                                                        33.511790       0.000000
                                                        13.041800       0.000000
                                                         5.357536       0.000000
                                                         2.279338       0.000000
                                                         0.993990       0.000000
                                                         0.433471       0.380741
                                                         0.095566       0.000000
                                                         0.044657       0.000000
                                                         0.020633       0.000000

                          4       3    3s            29493.000000       0.000000
                                                      4417.101000       0.000000
                                                      1005.223000       0.000000
                                                       284.700900       0.000000
                                                        92.865430       0.000000
                                                        33.511790       0.000000
                                                        13.041800       0.000000
                                                         5.357536       0.000000
                                                         2.279338       0.000000
                                                         0.993990       0.000000
                                                         0.433471       0.000000
                                                         0.095566       0.122500
                                                         0.044657       0.000000
                                                         0.020633       0.000000

                          4       4    4s            29493.000000       0.000000
                                                      4417.101000       0.000000
                                                      1005.223000       0.000000
                                                       284.700900       0.000000
                                                        92.865430       0.000000
                                                        33.511790       0.000000
                                                        13.041800       0.000000
                                                         5.357536       0.000000
                                                         2.279338       0.000000
                                                         0.993990       0.000000
                                                         0.433471       0.000000
                                                         0.095566       0.000000
                                                         0.044657       0.069235
                                                         0.020633       0.000000

                          4       5    5s            29493.000000      -0.004812
                                                      4417.101000      -0.008495
                                                      1005.223000      -0.014632
                                                       284.700900      -0.024056
                                                        92.865430      -0.037226
                                                        33.511790      -0.054796
                                                        13.041800      -0.073015
                                                         5.357536      -0.085849
                                                         2.279338      -0.082176
                                                         0.993990      -0.068042
                                                         0.433471      -0.039586
                                                         0.095566       0.037626
                                                         0.044657       0.040089
                                                         0.020633       0.008661

                          4       6    6s            29493.000000       0.000000
                                                      4417.101000       0.000000
                                                      1005.223000       0.000000
                                                       284.700900       0.000000
                                                        92.865430       0.000000
                                                        33.511790       0.000000
                                                        13.041800       0.000000
                                                         5.357536       0.000000
                                                         2.279338       0.000000
                                                         0.993990       0.000000
                                                         0.433471       0.000000
                                                         0.095566       0.000000
                                                         0.044657       0.000000
                                                         0.020633       0.038800

                          5       1    1dx2              0.023500       0.002322
                          5       1    1dxy              0.023500       0.004021
                          5       1    1dxz              0.023500       0.004021
                          5       1    1dy2              0.023500       0.002322
                          5       1    1dyz              0.023500       0.004021
                          5       1    1dz2              0.023500       0.002322

                          6       1    1fx3              0.044800       0.001359
                          6       1    1fx2y             0.044800       0.003040
                          6       1    1fx2z             0.044800       0.003040
                          6       1    1fxy2             0.044800       0.003040
                          6       1    1fxyz             0.044800       0.005265
                          6       1    1fxz2             0.044800       0.003040
                          6       1    1fy3              0.044800       0.001359
                          6       1    1fy2z             0.044800       0.003040
                          6       1    1fyz2             0.044800       0.003040
                          6       1    1fz3              0.044800       0.001359

                          7       1    1dx2              0.531000       0.543657
                                                         0.248100       0.000000
                                                         0.115900       0.000000
                                                         0.054200       0.000000
                          7       1    1dxy              0.531000       0.941641
                                                         0.248100       0.000000
                                                         0.115900       0.000000
                                                         0.054200       0.000000
                          7       1    1dxz              0.531000       0.941641
                                                         0.248100       0.000000
                                                         0.115900       0.000000
                                                         0.054200       0.000000
                          7       1    1dy2              0.531000       0.543657
                                                         0.248100       0.000000
                                                         0.115900       0.000000
                                                         0.054200       0.000000
                          7       1    1dyz              0.531000       0.941641
                                                         0.248100       0.000000
                                                         0.115900       0.000000
                                                         0.054200       0.000000
                          7       1    1dz2              0.531000       0.543657
                                                         0.248100       0.000000
                                                         0.115900       0.000000
                                                         0.054200       0.000000

                          7       2    2dx2              0.531000       0.000000
                                                         0.248100       0.143551
                                                         0.115900       0.000000
                                                         0.054200       0.000000
                          7       2    2dxy              0.531000       0.000000
                                                         0.248100       0.248638
                                                         0.115900       0.000000
                                                         0.054200       0.000000
                          7       2    2dxz              0.531000       0.000000
                                                         0.248100       0.248638
                                                         0.115900       0.000000
                                                         0.054200       0.000000
                          7       2    2dy2              0.531000       0.000000
                                                         0.248100       0.143551
                                                         0.115900       0.000000
                                                         0.054200       0.000000
                          7       2    2dyz              0.531000       0.000000
                                                         0.248100       0.248638
                                                         0.115900       0.000000
                                                         0.054200       0.000000
                          7       2    2dz2              0.531000       0.000000
                                                         0.248100       0.143551
                                                         0.115900       0.000000
                                                         0.054200       0.000000

                          7       3    3dx2              0.531000       0.000000
                                                         0.248100       0.000000
                                                         0.115900       0.037893
                                                         0.054200       0.000000
                          7       3    3dxy              0.531000       0.000000
                                                         0.248100       0.000000
                                                         0.115900       0.065632
                                                         0.054200       0.000000
                          7       3    3dxz              0.531000       0.000000
                                                         0.248100       0.000000
                                                         0.115900       0.065632
                                                         0.054200       0.000000
                          7       3    3dy2              0.531000       0.000000
                                                         0.248100       0.000000
                                                         0.115900       0.037893
                                                         0.054200       0.000000
                          7       3    3dyz              0.531000       0.000000
                                                         0.248100       0.000000
                                                         0.115900       0.065632
                                                         0.054200       0.000000
                          7       3    3dz2              0.531000       0.000000
                                                         0.248100       0.000000
                                                         0.115900       0.037893
                                                         0.054200       0.000000

                          7       4    4dx2              0.531000       0.000000
                                                         0.248100       0.000000
                                                         0.115900       0.000000
                                                         0.054200       0.010021
                          7       4    4dxy              0.531000       0.000000
                                                         0.248100       0.000000
                                                         0.115900       0.000000
                                                         0.054200       0.017357
                          7       4    4dxz              0.531000       0.000000
                                                         0.248100       0.000000
                                                         0.115900       0.000000
                                                         0.054200       0.017357
                          7       4    4dy2              0.531000       0.000000
                                                         0.248100       0.000000
                                                         0.115900       0.000000
                                                         0.054200       0.010021
                          7       4    4dyz              0.531000       0.000000
                                                         0.248100       0.000000
                                                         0.115900       0.000000
                                                         0.054200       0.017357
                          7       4    4dz2              0.531000       0.000000
                                                         0.248100       0.000000
                                                         0.115900       0.000000
                                                         0.054200       0.010021

                          8       1    1gx4              0.072400       0.000814
                          8       1    1gx3y             0.072400       0.002154
                          8       1    1gx3z             0.072400       0.002154
                          8       1    1gx2y2            0.072400       0.002781
                          8       1    1gx2yz            0.072400       0.004817
                          8       1    1gx2z2            0.072400       0.002781
                          8       1    1gxy3             0.072400       0.002154
                          8       1    1gxy2z            0.072400       0.004817
                          8       1    1gxyz2            0.072400       0.004817
                          8       1    1gxz3             0.072400       0.002154
                          8       1    1gy4              0.072400       0.000814
                          8       1    1gy3z             0.072400       0.002154
                          8       1    1gy2z2            0.072400       0.002781
                          8       1    1gyz3             0.072400       0.002154
                          8       1    1gz4              0.072400       0.000814

                          9       1    1fx3              0.292000       0.092271
                                                         0.164100       0.000000
                                                         0.092200       0.000000
                          9       1    1fx2y             0.292000       0.206325
                                                         0.164100       0.000000
                                                         0.092200       0.000000
                          9       1    1fx2z             0.292000       0.206325
                                                         0.164100       0.000000
                                                         0.092200       0.000000
                          9       1    1fxy2             0.292000       0.206325
                                                         0.164100       0.000000
                                                         0.092200       0.000000
                          9       1    1fxyz             0.292000       0.357365
                                                         0.164100       0.000000
                                                         0.092200       0.000000
                          9       1    1fxz2             0.292000       0.206325
                                                         0.164100       0.000000
                                                         0.092200       0.000000
                          9       1    1fy3              0.292000       0.092271
                                                         0.164100       0.000000
                                                         0.092200       0.000000
                          9       1    1fy2z             0.292000       0.206325
                                                         0.164100       0.000000
                                                         0.092200       0.000000
                          9       1    1fyz2             0.292000       0.206325
                                                         0.164100       0.000000
                                                         0.092200       0.000000
                          9       1    1fz3              0.292000       0.092271
                                                         0.164100       0.000000
                                                         0.092200       0.000000

                          9       2    2fx3              0.292000       0.000000
                                                         0.164100       0.025232
                                                         0.092200       0.000000
                          9       2    2fx2y             0.292000       0.000000
                                                         0.164100       0.056420
                                                         0.092200       0.000000
                          9       2    2fx2z             0.292000       0.000000
                                                         0.164100       0.056420
                                                         0.092200       0.000000
                          9       2    2fxy2             0.292000       0.000000
                                                         0.164100       0.056420
                                                         0.092200       0.000000
                          9       2    2fxyz             0.292000       0.000000
                                                         0.164100       0.097722
                                                         0.092200       0.000000
                          9       2    2fxz2             0.292000       0.000000
                                                         0.164100       0.056420
                                                         0.092200       0.000000
                          9       2    2fy3              0.292000       0.000000
                                                         0.164100       0.025232
                                                         0.092200       0.000000
                          9       2    2fy2z             0.292000       0.000000
                                                         0.164100       0.056420
                                                         0.092200       0.000000
                          9       2    2fyz2             0.292000       0.000000
                                                         0.164100       0.056420
                                                         0.092200       0.000000
                          9       2    2fz3              0.292000       0.000000
                                                         0.164100       0.025232
                                                         0.092200       0.000000

                          9       3    3fx3              0.292000       0.000000
                                                         0.164100       0.000000
                                                         0.092200       0.006896
                          9       3    3fx2y             0.292000       0.000000
                                                         0.164100       0.000000
                                                         0.092200       0.015420
                          9       3    3fx2z             0.292000       0.000000
                                                         0.164100       0.000000
                                                         0.092200       0.015420
                          9       3    3fxy2             0.292000       0.000000
                                                         0.164100       0.000000
                                                         0.092200       0.015420
                          9       3    3fxyz             0.292000       0.000000
                                                         0.164100       0.000000
                                                         0.092200       0.026708
                          9       3    3fxz2             0.292000       0.000000
                                                         0.164100       0.000000
                                                         0.092200       0.015420
                          9       3    3fy3              0.292000       0.000000
                                                         0.164100       0.000000
                                                         0.092200       0.006896
                          9       3    3fy2z             0.292000       0.000000
                                                         0.164100       0.000000
                                                         0.092200       0.015420
                          9       3    3fyz2             0.292000       0.000000
                                                         0.164100       0.000000
                                                         0.092200       0.015420
                          9       3    3fz3              0.292000       0.000000
                                                         0.164100       0.000000
                                                         0.092200       0.006896

                         10       1    1hx5              0.127400       0.000917
                         10       1    1hx4y             0.127400       0.002750
                         10       1    1hx4z             0.127400       0.002750
                         10       1    1hx3y2            0.127400       0.004200
                         10       1    1hx3yz            0.127400       0.007275
                         10       1    1hx3z2            0.127400       0.004200
                         10       1    1hx2y3            0.127400       0.004200
                         10       1    1hx2y2z           0.127400       0.009392
                         10       1    1hx2yz2           0.127400       0.009392
                         10       1    1hx2z3            0.127400       0.004200
                         10       1    1hxy4             0.127400       0.002750
                         10       1    1hxy3z            0.127400       0.007275
                         10       1    1hxy2z2           0.127400       0.009392
                         10       1    1hxyz3            0.127400       0.007275
                         10       1    1hxz4             0.127400       0.002750
                         10       1    1hy5              0.127400       0.000917
                         10       1    1hy4z             0.127400       0.002750
                         10       1    1hy3z2            0.127400       0.004200
                         10       1    1hy2z3            0.127400       0.004200
                         10       1    1hyz4             0.127400       0.002750
                         10       1    1hz5              0.127400       0.000917

                         11       1    1gx4              0.297100       0.039529
                                                         0.150000       0.000000
                         11       1    1gx3y             0.297100       0.104584
                                                         0.150000       0.000000
                         11       1    1gx3z             0.297100       0.104584
                                                         0.150000       0.000000
                         11       1    1gx2y2            0.297100       0.135018
                                                         0.150000       0.000000
                         11       1    1gx2yz            0.297100       0.233858
                                                         0.150000       0.000000
                         11       1    1gx2z2            0.297100       0.135018
                                                         0.150000       0.000000
                         11       1    1gxy3             0.297100       0.104584
                                                         0.150000       0.000000
                         11       1    1gxy2z            0.297100       0.233858
                                                         0.150000       0.000000
                         11       1    1gxyz2            0.297100       0.233858
                                                         0.150000       0.000000
                         11       1    1gxz3             0.297100       0.104584
                                                         0.150000       0.000000
                         11       1    1gy4              0.297100       0.039529
                                                         0.150000       0.000000
                         11       1    1gy3z             0.297100       0.104584
                                                         0.150000       0.000000
                         11       1    1gy2z2            0.297100       0.135018
                                                         0.150000       0.000000
                         11       1    1gyz3             0.297100       0.104584
                                                         0.150000       0.000000
                         11       1    1gz4              0.297100       0.039529
                                                         0.150000       0.000000

                         11       2    2gx4              0.297100       0.000000
                                                         0.150000       0.006035
                         11       2    2gx3y             0.297100       0.000000
                                                         0.150000       0.015967
                         11       2    2gx3z             0.297100       0.000000
                                                         0.150000       0.015967
                         11       2    2gx2y2            0.297100       0.000000
                                                         0.150000       0.020614
                         11       2    2gx2yz            0.297100       0.000000
                                                         0.150000       0.035704
                         11       2    2gx2z2            0.297100       0.000000
                                                         0.150000       0.020614
                         11       2    2gxy3             0.297100       0.000000
                                                         0.150000       0.015967
                         11       2    2gxy2z            0.297100       0.000000
                                                         0.150000       0.035704
                         11       2    2gxyz2            0.297100       0.000000
                                                         0.150000       0.035704
                         11       2    2gxz3             0.297100       0.000000
                                                         0.150000       0.015967
                         11       2    2gy4              0.297100       0.000000
                                                         0.150000       0.006035
                         11       2    2gy3z             0.297100       0.000000
                                                         0.150000       0.015967
                         11       2    2gy2z2            0.297100       0.000000
                                                         0.150000       0.020614
                         11       2    2gyz3             0.297100       0.000000
                                                         0.150000       0.015967
                         11       2    2gz4              0.297100       0.000000
                                                         0.150000       0.006035

                         12       1    1hx5              0.294900       0.014021
                         12       1    1hx4y             0.294900       0.042064
                         12       1    1hx4z             0.294900       0.042064
                         12       1    1hx3y2            0.294900       0.064254
                         12       1    1hx3yz            0.294900       0.111290
                         12       1    1hx3z2            0.294900       0.064254
                         12       1    1hx2y3            0.294900       0.064254
                         12       1    1hx2y2z           0.294900       0.143675
                         12       1    1hx2yz2           0.294900       0.143675
                         12       1    1hx2z3            0.294900       0.064254
                         12       1    1hxy4             0.294900       0.042064
                         12       1    1hxy3z            0.294900       0.111290
                         12       1    1hxy2z2           0.294900       0.143675
                         12       1    1hxyz3            0.294900       0.111290
                         12       1    1hxz4             0.294900       0.042064
                         12       1    1hy5              0.294900       0.014021
                         12       1    1hy4z             0.294900       0.042064
                         12       1    1hy3z2            0.294900       0.064254
                         12       1    1hy2z3            0.294900       0.064254
                         12       1    1hyz4             0.294900       0.042064
                         12       1    1hz5              0.294900       0.014021

     RI Auxiliary Basis Set                                    aug-cc-pV5Z-RIFIT

       Number of orbital shell sets:                                          46
       Number of orbital shells:                                              46
       Number of primitive Cartesian functions:                               46
       Number of Cartesian basis functions:                                  371
       Number of spherical basis functions:                                  242
       Norm type:                                                              2

       Normalised Cartesian orbitals:

                        Set   Shell   Orbital            Exponent    Coefficient

                          1       1    1s                0.030479       0.051989

                          2       1    1px               0.045175       0.029687
                          2       1    1py               0.045175       0.029687
                          2       1    1pz               0.045175       0.029687

                          3       1    1dx2              0.048718       0.008315
                          3       1    1dxy              0.048718       0.014402
                          3       1    1dxz              0.048718       0.014402
                          3       1    1dy2              0.048718       0.008315
                          3       1    1dyz              0.048718       0.014402
                          3       1    1dz2              0.048718       0.008315

                          4       1    1s                0.064288       0.090993

                          5       1    1fx3              0.065213       0.003164
                          5       1    1fx2y             0.065213       0.007075
                          5       1    1fx2z             0.065213       0.007075
                          5       1    1fxy2             0.065213       0.007075
                          5       1    1fxyz             0.065213       0.012253
                          5       1    1fxz2             0.065213       0.007075
                          5       1    1fy3              0.065213       0.003164
                          5       1    1fy2z             0.065213       0.007075
                          5       1    1fyz2             0.065213       0.007075
                          5       1    1fz3              0.065213       0.003164

                          6       1    1px               0.072777       0.053881
                          6       1    1py               0.072777       0.053881
                          6       1    1pz               0.072777       0.053881

                          7       1    1gx4              0.099854       0.001971
                          7       1    1gx3y             0.099854       0.005215
                          7       1    1gx3z             0.099854       0.005215
                          7       1    1gx2y2            0.099854       0.006732
                          7       1    1gx2yz            0.099854       0.011661
                          7       1    1gx2z2            0.099854       0.006732
                          7       1    1gxy3             0.099854       0.005215
                          7       1    1gxy2z            0.099854       0.011661
                          7       1    1gxyz2            0.099854       0.011661
                          7       1    1gxz3             0.099854       0.005215
                          7       1    1gy4              0.099854       0.001971
                          7       1    1gy3z             0.099854       0.005215
                          7       1    1gy2z2            0.099854       0.006732
                          7       1    1gyz3             0.099854       0.005215
                          7       1    1gz4              0.099854       0.001971

                          8       1    1dx2              0.101078       0.029823
                          8       1    1dxy              0.101078       0.051656
                          8       1    1dxz              0.101078       0.051656
                          8       1    1dy2              0.101078       0.029823
                          8       1    1dyz              0.101078       0.051656
                          8       1    1dz2              0.101078       0.029823

                          9       1    1px               0.121261       0.101998
                          9       1    1py               0.121261       0.101998
                          9       1    1pz               0.121261       0.101998

                         10       1    1s                0.123532       0.148506

                         11       1    1fx3              0.156013       0.022520
                         11       1    1fx2y             0.156013       0.050356
                         11       1    1fx2z             0.156013       0.050356
                         11       1    1fxy2             0.156013       0.050356
                         11       1    1fxyz             0.156013       0.087219
                         11       1    1fxz2             0.156013       0.050356
                         11       1    1fy3              0.156013       0.022520
                         11       1    1fy2z             0.156013       0.050356
                         11       1    1fyz2             0.156013       0.050356
                         11       1    1fz3              0.156013       0.022520

                         12       1    1hx5              0.161413       0.001978
                         12       1    1hx4y             0.161413       0.005933
                         12       1    1hx4z             0.161413       0.005933
                         12       1    1hx3y2            0.161413       0.009063
                         12       1    1hx3yz            0.161413       0.015697
                         12       1    1hx3z2            0.161413       0.009063
                         12       1    1hx2y3            0.161413       0.009063
                         12       1    1hx2y2z           0.161413       0.020265
                         12       1    1hx2yz2           0.161413       0.020265
                         12       1    1hx2z3            0.161413       0.009063
                         12       1    1hxy4             0.161413       0.005933
                         12       1    1hxy3z            0.161413       0.015697
                         12       1    1hxy2z2           0.161413       0.020265
                         12       1    1hxyz3            0.161413       0.015697
                         12       1    1hxz4             0.161413       0.005933
                         12       1    1hy5              0.161413       0.001978
                         12       1    1hy4z             0.161413       0.005933
                         12       1    1hy3z2            0.161413       0.009063
                         12       1    1hy2z3            0.161413       0.009063
                         12       1    1hyz4             0.161413       0.005933
                         12       1    1hz5              0.161413       0.001978

                         13       1    1dx2              0.173452       0.076731
                         13       1    1dxy              0.173452       0.132903
                         13       1    1dxz              0.173452       0.132903
                         13       1    1dy2              0.173452       0.076731
                         13       1    1dyz              0.173452       0.132903
                         13       1    1dz2              0.173452       0.076731

                         14       1    1gx4              0.196188       0.012627
                         14       1    1gx3y             0.196188       0.033407
                         14       1    1gx3z             0.196188       0.033407
                         14       1    1gx2y2            0.196188       0.043128
                         14       1    1gx2yz            0.196188       0.074700
                         14       1    1gx2z2            0.196188       0.043128
                         14       1    1gxy3             0.196188       0.033407
                         14       1    1gxy2z            0.196188       0.074700
                         14       1    1gxyz2            0.196188       0.074700
                         14       1    1gxz3             0.196188       0.033407
                         14       1    1gy4              0.196188       0.012627
                         14       1    1gy3z             0.196188       0.033407
                         14       1    1gy2z2            0.196188       0.043128
                         14       1    1gyz3             0.196188       0.033407
                         14       1    1gz4              0.196188       0.012627

                         15       1    1px               0.223276       0.218772
                         15       1    1py               0.223276       0.218772
                         15       1    1pz               0.223276       0.218772

                         16       1    1s                0.246901       0.249633

                         17       1    1fx3              0.259280       0.070621
                         17       1    1fx2y             0.259280       0.157914
                         17       1    1fx2z             0.259280       0.157914
                         17       1    1fxy2             0.259280       0.157914
                         17       1    1fxyz             0.259280       0.273515
                         17       1    1fxz2             0.259280       0.157914
                         17       1    1fy3              0.259280       0.070621
                         17       1    1fy2z             0.259280       0.157914
                         17       1    1fyz2             0.259280       0.157914
                         17       1    1fz3              0.259280       0.070621

                         18       1    1ix6              0.339630       0.007797
                         18       1    1ix5y             0.339630       0.025861
                         18       1    1ix5z             0.339630       0.025861
                         18       1    1ix4y2            0.339630       0.044793
                         18       1    1ix4yz            0.339630       0.077583
                         18       1    1ix4z2            0.339630       0.044793
                         18       1    1ix3y3            0.339630       0.052999
                         18       1    1ix3y2z           0.339630       0.118510
                         18       1    1ix3yz2           0.339630       0.118510
                         18       1    1ix3z3            0.339630       0.052999
                         18       1    1ix2y4            0.339630       0.044793
                         18       1    1ix2y3z           0.339630       0.118510
                         18       1    1ix2y2z2          0.339630       0.152996
                         18       1    1ix2yz3           0.339630       0.118510
                         18       1    1ix2z4            0.339630       0.044793
                         18       1    1ixy5             0.339630       0.025861
                         18       1    1ixy4z            0.339630       0.077583
                         18       1    1ixy3z2           0.339630       0.118510
                         18       1    1ixy2z3           0.339630       0.118510
                         18       1    1ixyz4            0.339630       0.077583
                         18       1    1ixz5             0.339630       0.025861
                         18       1    1iy6              0.339630       0.007797
                         18       1    1iy5z             0.339630       0.025861
                         18       1    1iy4z2            0.339630       0.044793
                         18       1    1iy3z3            0.339630       0.052999
                         18       1    1iy2z4            0.339630       0.044793
                         18       1    1iyz5             0.339630       0.025861
                         18       1    1iz6              0.339630       0.007797

                         19       1    1dx2              0.339644       0.248715
                         19       1    1dxy              0.339644       0.430786
                         19       1    1dxz              0.339644       0.430786
                         19       1    1dy2              0.339644       0.248715
                         19       1    1dyz              0.339644       0.430786
                         19       1    1dz2              0.339644       0.248715

                         20       1    1s                0.380123       0.345027

                         21       1    1fx3              0.415519       0.204072
                         21       1    1fx2y             0.415519       0.456319
                         21       1    1fx2z             0.415519       0.456319
                         21       1    1fxy2             0.415519       0.456319
                         21       1    1fxyz             0.415519       0.790368
                         21       1    1fxz2             0.415519       0.456319
                         21       1    1fy3              0.415519       0.204072
                         21       1    1fy2z             0.415519       0.456319
                         21       1    1fyz2             0.415519       0.456319
                         21       1    1fz3              0.415519       0.204072

                         22       1    1hx5              0.427119       0.046733
                         22       1    1hx4y             0.427119       0.140200
                         22       1    1hx4z             0.427119       0.140200
                         22       1    1hx3y2            0.427119       0.214160
                         22       1    1hx3yz            0.427119       0.370935
                         22       1    1hx3z2            0.427119       0.214160
                         22       1    1hx2y3            0.427119       0.214160
                         22       1    1hx2y2z           0.427119       0.478876
                         22       1    1hx2yz2           0.427119       0.478876
                         22       1    1hx2z3            0.427119       0.214160
                         22       1    1hxy4             0.427119       0.140200
                         22       1    1hxy3z            0.427119       0.370935
                         22       1    1hxy2z2           0.427119       0.478876
                         22       1    1hxyz3            0.427119       0.370935
                         22       1    1hxz4             0.427119       0.140200
                         22       1    1hy5              0.427119       0.046733
                         22       1    1hy4z             0.427119       0.140200
                         22       1    1hy3z2            0.427119       0.214160
                         22       1    1hy2z3            0.427119       0.214160
                         22       1    1hyz4             0.427119       0.140200
                         22       1    1hz5              0.427119       0.046733

                         23       1    1gx4              0.434910       0.112729
                         23       1    1gx3y             0.434910       0.298252
                         23       1    1gx3z             0.434910       0.298252
                         23       1    1gx2y2            0.434910       0.385041
                         23       1    1gx2yz            0.434910       0.666911
                         23       1    1gx2z2            0.434910       0.385041
                         23       1    1gxy3             0.434910       0.298252
                         23       1    1gxy2z            0.434910       0.666911
                         23       1    1gxyz2            0.434910       0.666911
                         23       1    1gxz3             0.434910       0.298252
                         23       1    1gy4              0.434910       0.112729
                         23       1    1gy3z             0.434910       0.298252
                         23       1    1gy2z2            0.434910       0.385041
                         23       1    1gyz3             0.434910       0.298252
                         23       1    1gz4              0.434910       0.112729

                         24       1    1px               0.520190       0.629713
                         24       1    1py               0.520190       0.629713
                         24       1    1pz               0.520190       0.629713

                         25       1    1hx5              0.598672       0.140026
                         25       1    1hx4y             0.598672       0.420078
                         25       1    1hx4z             0.598672       0.420078
                         25       1    1hx3y2            0.598672       0.641679
                         25       1    1hx3yz            0.598672       1.111421
                         25       1    1hx3z2            0.598672       0.641679
                         25       1    1hx2y3            0.598672       0.641679
                         25       1    1hx2y2z           0.598672       1.434838
                         25       1    1hx2yz2           0.598672       1.434838
                         25       1    1hx2z3            0.598672       0.641679
                         25       1    1hxy4             0.598672       0.420078
                         25       1    1hxy3z            0.598672       1.111421
                         25       1    1hxy2z2           0.598672       1.434838
                         25       1    1hxyz3            0.598672       1.111421
                         25       1    1hxz4             0.598672       0.420078
                         25       1    1hy5              0.598672       0.140026
                         25       1    1hy4z             0.598672       0.420078
                         25       1    1hy3z2            0.598672       0.641679
                         25       1    1hy2z3            0.598672       0.641679
                         25       1    1hyz4             0.598672       0.420078
                         25       1    1hz5              0.598672       0.140026

                         26       1    1ix6              0.598672       0.065334
                         26       1    1ix5y             0.598672       0.216687
                         26       1    1ix5z             0.598672       0.216687
                         26       1    1ix4y2            0.598672       0.375313
                         26       1    1ix4yz            0.598672       0.650061
                         26       1    1ix4z2            0.598672       0.375313
                         26       1    1ix3y3            0.598672       0.444076
                         26       1    1ix3y2z           0.598672       0.992984
                         26       1    1ix3yz2           0.598672       0.992984
                         26       1    1ix3z3            0.598672       0.444076
                         26       1    1ix2y4            0.598672       0.375313
                         26       1    1ix2y3z           0.598672       0.992984
                         26       1    1ix2y2z2          0.598672       1.281937
                         26       1    1ix2yz3           0.598672       0.992984
                         26       1    1ix2z4            0.598672       0.375313
                         26       1    1ixy5             0.598672       0.216687
                         26       1    1ixy4z            0.598672       0.650061
                         26       1    1ixy3z2           0.598672       0.992984
                         26       1    1ixy2z3           0.598672       0.992984
                         26       1    1ixyz4            0.598672       0.650061
                         26       1    1ixz5             0.598672       0.216687
                         26       1    1iy6              0.598672       0.065334
                         26       1    1iy5z             0.598672       0.216687
                         26       1    1iy4z2            0.598672       0.375313
                         26       1    1iy3z3            0.598672       0.444076
                         26       1    1iy2z4            0.598672       0.375313
                         26       1    1iyz5             0.598672       0.216687
                         26       1    1iz6              0.598672       0.065334

                         27       1    1s                0.705917       0.548877

                         28       1    1fx3              0.764640       0.804883
                         28       1    1fx2y             0.764640       1.799773
                         28       1    1fx2z             0.764640       1.799773
                         28       1    1fxy2             0.764640       1.799773
[...]

 J. Wilhelm, J. Hutter.
 Phys. Rev. B 95, 235123 (2017).
 Periodic GW calculations in the Gaussian and plane-waves scheme.
 https://doi.org/10.1103/PhysRevB.95.235123

 O. Schuett, P. Messmer, J. Hutter, J. VandeVondele.
 Electronic Structure Calculations on Graphics Processing Units, 173-190 (2016).
 GPU-Accelerated Sparse Matrix-Matrix Multiplication for Linear Scaling Density 
 Functional Theory.
 https://doi.org/10.1002/9781118670712.ch8

 J. Wilhelm, M. Del Ben, J. Hutter.
 J. Chem. Theory Comput. 12, 3623-3635 (2016).
 GW in the Gaussian and plane waves scheme with application to linear acenes.
 https://doi.org/10.1021/acs.jctc.6b00380

 M. Del Ben, O. Schuett, T. Wentz, P. Messmer, J. Hutter, J. VandeVondele.
 Comput. Phys. Commun. 187, 120-129 (2015).
 Enabling simulation at the fifth rung of DFT: Large scale RPA calculations with 
 excellent time to solution.
 https://doi.org/10.1016/j.cpc.2014.10.021

 J. Hutter, M. Iannuzzi, F. Schiffmann, J. VandeVondele.
 WIREs Comput Mol Sci. 4, 15-25 (2014).
 CP2K: atomistic simulations of condensed matter systems.
 https://doi.org/10.1002/wcms.1159

 U. Borstnik, J. VandeVondele, V. Weber, J. Hutter.
 Parallel Comput. 40, 47-58 (2014).
 Sparse matrix multiplication: The distributed block-compressed sparse row 
 library.
 https://doi.org/10.1016/j.parco.2014.03.012

 M. Del Ben, J. Hutter, J. VandeVondele.
 J. Chem. Theory Comput. 9, 2654-2671 (2013).
 Electron Correlation in the Condensed Phase from a Resolution of Identity 
 Approach Based on the Gaussian and Plane Waves Scheme.
 https://doi.org/10.1021/ct4002202

 M. Del Ben, J. Hutter, J. VandeVondele.
 J. Chem. Theory Comput. 8, 4177-4188 (2012).
 Second-Order Moller-Plesset Perturbation Theory in the Condensed Phase: An 
 Efficient and Massively Parallel Gaussian and Plane Waves Approach.
 https://doi.org/10.1021/ct300531w

 M. Guidon, J. Hutter, J. VandeVondele.
 J. Chem. Theory Comput. 5, 3010-3021 (2009).
 Robust Periodic Hartree-Fock Exchange for Large-Scale Simulations Using 
 Gaussian Basis Sets.
 https://doi.org/10.1021/ct900494g

 M. Guidon, F. Schiffmann, J. Hutter, J. VandeVondele.
 J. Chem. Phys. 128, 214104 (2008).
 Ab initio molecular dynamics using hybrid density functionals.
 https://doi.org/10.1063/1.2931945

 L. Genovese, T. Deutsch, S. Goedecker.
 J. Chem. Phys. 127, 054704 (2007).
 Efficient and accurate three-dimensional Poisson solver for surface problems.
 https://doi.org/10.1063/1.2754685

 J. VandeVondele, J. Hutter.
 J. Chem. Phys. 127, 114105 (2007).
 Gaussian basis sets for accurate calculations on molecular systems in gas and 
 condensed phases.
 https://doi.org/10.1063/1.2770708

 L. Genovese, T. Deutsch, A. Neelov, S. Goedecker, G. Beylkin.
 J. Chem. Phys. 125, 074105 (2006).
 Efficient solution of Poisson's equation with free boundary conditions.
 https://doi.org/10.1063/1.2335442

 M. Frigo, S. G. Johnson.
 Proc. IEEE 93, 216-231 (2005).
 The design and implementation of FFTW3.
 https://doi.org/10.1109/JPROC.2004.840301

 M. Krack, M. Parrinello.
 Phys. Chem. Chem. Phys. 2, 2105-2112 (2000).
 All-electron ab-initio molecular dynamics.
 https://doi.org/10.1039/b001167n

 G. Lippert, J. Hutter, M. Parrinello.
 Theor. Chem. Acc. 103, 124-140 (1999).
 The Gaussian and augmented-plane-wave density functional method for ab initio 
 molecular dynamics simulations.
 https://doi.org/10.1007/s002140050523

 J. P. Perdew, K. Burke, M. Ernzerhof.
 Phys. Rev. Lett. 77, 3865-3868 (1996).
 Generalized gradient approximation made simple.
 https://doi.org/10.1103/PhysRevLett.77.3865


 -------------------------------------------------------------------------------
 -                                                                             -
 -                                T I M I N G                                  -
 -                                                                             -
 -------------------------------------------------------------------------------
 SUBROUTINE                       CALLS  ASD         SELF TIME        TOTAL TIME
                                MAXIMUM       AVERAGE  MAXIMUM  AVERAGE  MAXIMUM
 CP2K                                 1  1.0    0.045    0.083  860.424  860.425
 qs_energies                          1  2.0    0.001    0.001  858.696  858.965
 scf_env_do_scf                       1  3.0    0.000    0.000  838.406  838.411
 scf_env_do_scf_inner_loop           97  4.0    0.002    0.006  838.406  838.411
 qs_ks_build_kohn_sham_matrix        98  7.0    0.015    0.017  765.029  765.134
 qs_ks_update_qs_env                 97  5.0    0.001    0.001  762.203  762.307
 rebuild_ks_matrix                   97  6.0    0.000    0.000  762.186  762.290
 hfx_ks_matrix                       98  8.0    0.004    0.005  507.826  508.259
 integrate_four_center               98  9.0    4.328    6.411  507.820  508.254
 mp_sync                            953  9.6  421.528  434.138  421.528  434.138
 integrate_four_center_main          98 10.0    7.049  276.099   10.494  433.354
 integrate_four_center_bin         7848 11.0    3.445  157.256    3.445  157.256
 fft_wrap_pw1pw2                   2049  9.9    0.045    0.065  117.780  119.312
 fft_wrap_pw1pw2_250               1461 11.1    5.033    5.702  113.799  115.408
 fft3d_ps                          2049 11.9   46.154   50.630   95.168   96.865
 pw_poisson_solve                    98  8.0    1.746    1.899   84.513   84.558
 qs_vxc_create                       98  8.0    0.001    0.001   69.500   69.500
 xc_vxc_pw_create                    97  9.0    1.213    1.342   69.498   69.499
 calc_screening_functions             1 10.0   64.112   66.888   66.069   68.834
 ps_wavelet_solve                    98  9.0   44.006   48.880   56.255   56.660
 xc_pw_derive                       582 11.0    0.006    0.008   51.047   52.601
 mp_alltoall_d54                     98 10.0    7.951   43.762    7.951   43.762
 mp_alltoall_z22v                  2049 13.9   37.990   42.452   37.990   42.452
 qs_rho_update_rho_low               98  5.0    0.001    0.001   39.812   39.815
 calculate_rho_elec                  98  6.0    0.958    1.021   39.537   39.541
 xc_pw_divergence                    97 10.0    0.004    0.005   34.760   36.344
 prepare_gapw_den                    98  8.0    0.002    0.003   36.081   36.293
 xc_rho_set_and_dset_create          97 10.0    0.865    1.051   32.859   34.728
 gspace_mixing                       96  5.0    0.938    1.000   34.582   34.582
 sum_up_and_integrate                98  8.0    0.001    0.002   29.027   30.236
 integrate_v_rspace                  98  9.0    0.002    0.003   28.812   30.150
 density_rs2pw                       98  7.0    0.006    0.007   27.718   28.652
 yz_to_x                            977 12.8    3.197    3.848   23.431   27.281
 x_to_yz                           1072 13.1    7.795    8.402   25.551   26.423
 broyden_mixing                      96  6.0   25.704   26.064   26.109   26.161
 mp_sum_d                          3821  6.8   24.103   25.722   24.103   25.722
 potential_pw2rs                     98 10.0    0.050    0.056   20.155   21.322
 calculate_vxc_atom                  98  8.0    0.049    1.065   20.654   20.654
 calculate_rho_atom                 196  9.0    3.169   20.369    3.169   20.369
 gaVxcgb_GC                         194  9.0    0.405   19.452    0.405   19.452
 mp2_main                             1  3.0    0.000    0.000   19.024   19.293
 mp_sum_dv                         6921 10.2   17.484   18.035   17.484   18.035
 mp_alltoall_d11v                  1808  9.5   11.437   16.930   11.437   16.930
 mp2_gpw_main                         1  4.0    0.000    0.000   15.951   15.962
 transfer_rs2pw                     491  8.4    0.012    0.015   14.452   15.245
 transfer_pw2rs                     491 10.6    0.007    0.009   14.455   14.696
 put_rho0_on_grid                    98  9.0    0.963    1.033   14.396   14.608
 mp_waitany                       12980 11.5   13.113   14.436   13.113   14.436
 rpa_ri_compute_en                    1  5.0    0.000    0.000   14.258   14.258
 rpa_num_int                          1  6.0    0.001    0.002   14.188   14.193
 compute_GW_self_energy             100  7.0    0.001    0.002   13.527   13.711
 grid_collocate_task_list            98  7.0   10.168   13.639   10.168   13.639
 compute_GW_self_energy_deep        100  8.0   10.318   10.483   13.344   13.528
 transfer_rs2pw_250                 197 10.0    3.307    3.795   10.336   11.282
 transfer_pw2rs_250                 197 11.0    2.997    3.304    9.205    9.642
 rs_gather_matrices                  98 10.0    0.013    0.171    7.422    8.665
 grid_integrate_task_list            98 10.0    1.233    8.517    1.233    8.517
 xc_functional_eval                 485 10.9    0.001    0.003    6.634    8.238
 pbe_lda_eval                       485 11.9    6.633    8.236    6.633    8.236
 pw_scatter_p                      1072 12.1    7.682    7.786    7.682    7.786
 mp_alltoall_d45                     99 10.0    3.927    7.721    3.927    7.721
 pw_gather_p                        977 11.8    6.438    7.368    6.438    7.368
 integrate_vhg0_rspace               98  8.0    0.567    0.750    7.080    7.123
 pw_derive                          876 11.3    5.684    6.059    5.684    6.059
 mp_sum_l                          1144  6.6    2.806    3.988    2.806    3.988
 integrate_four_center_load          98 10.0    0.000    0.001    2.774    3.943
 hfx_load_balance                     1 11.0    0.000    0.000    2.774    3.942
 hfx_load_balance_range               1 12.0    0.000    0.003    2.765    3.933
 cp2k_distribution_to_z_slices       98  9.0    1.810    1.918    3.405    3.667
 fft_wrap_pw1pw2_90                 196 10.5    0.148    0.189    3.191    3.617
 pw_copy                           1465 10.6    3.341    3.587    3.341    3.587
 mp_waitall_1                     30406 12.0    2.442    3.524    2.442    3.524
 parallel_gemm_fm                   414  8.3    0.001    0.001    3.255    3.282
 parallel_gemm_fm_gemm              414  9.3    0.001    0.001    3.254    3.281
 cp_fm_gemm                         414 10.3    3.254    3.280    3.254    3.280
 pw_poisson_set                      99  8.9    0.003    0.004    3.126    3.171
 powell_optimize                1241104 11.0    3.073    3.151    3.073    3.151
 transfer_pw2rs_90                   98 12.0    0.643    0.779    2.462    3.062
 rs_grid_zero                       492 11.2    2.887    2.985    2.887    2.985
 compute_vec_Sigma_x_minus_vxc_       1  4.0    0.000    0.000    2.850    2.850
 transfer_pw2rs_30                   98 12.0    1.334    1.452    2.070    2.340
 pw_axpy                            975  9.3    2.106    2.258    2.106    2.258
 qs_scf_new_mos                      97  5.0    0.001    0.001    2.235    2.258
 transfer_rs2pw_90                   98  9.0    0.564    0.670    2.039    2.249
 pw_copy_to_array                   977 11.8    1.916    2.109    1.916    2.109
 Vh_1c_gg_integrals                  98  8.0    0.049    1.742    1.898    2.081
 mp_sum_dm                          690  7.6    1.430    1.990    1.430    1.990
 calc_pair_dist_radii                 1 10.0    0.677    0.698    1.794    1.832
 pw_integral_ab_c1d_c1d_gs           98  9.0    1.438    1.452    1.613    1.755
 cp_fm_syevd                        103  7.0    0.001    0.001    1.720    1.724
 eigensolver_symm                    98  6.0    0.003    0.003    1.709    1.712
 mp2_ri_gpw_compute_in                1  5.0    0.001    0.001    1.661    1.661
 mp2_ri_gpw_compute_in_loop           1  6.0    0.000    0.000    1.650    1.650
 cp_fm_redistribute_end             103  8.0    0.845    1.640    0.851    1.646
 pw_copy_from_array                1072 12.1    1.321    1.631    1.321    1.631
 transfer_rs2pw_30                   98  9.0    0.766    0.803    1.570    1.611
 cp_fm_syevd_base                   103  8.0    0.791    1.586    0.791    1.586
 contract_B_L                         4  7.0    0.004    0.004    1.099    1.542
 calculate_rho0_atom                196  9.0    1.189    1.308    1.189    1.308
 mp_sendrecv_dv                    9212 10.0    1.140    1.202    1.140    1.202
 pw_poisson_rebuild                  98  9.0    0.000    0.000    1.113    1.138
 ps_wavelet_create                    1 10.0    0.000    0.000    1.113    1.138
 RS_z_slice_distribution              1 11.0    0.998    1.044    1.113    1.138
 mp_irecv_dm3                      3540 11.5    0.515    1.137    0.515    1.137
 mp2_eri_3c_integrate                 1  7.0    0.002    0.003    0.485    1.092
 integrate_set_3c                  1456  8.0    0.446    1.025    0.483    1.090
 mp_cart_create                     476 10.0    0.647    1.090    0.647    1.090
 dbt_pgrid_create_expert             80 10.7    0.000    0.000    0.624    1.067
 pw_zero                            584 10.3    0.936    1.009    0.936    1.009
 mp_isendrecv_dv                  18424 12.0    0.505    0.976    0.505    0.976
 mp_isend_dv                      12410 11.8    0.591    0.929    0.591    0.929
 transfer_pw2rs_10                   98 12.0    0.335    0.357    0.711    0.808
 create_qs_kind_set                   1  2.0    0.000    0.000    0.745    0.746
 read_qs_kind                         2  3.0    0.410    0.417    0.745    0.746
 integrate_four_center_getP          98 10.0    0.013    0.018    0.717    0.742
 integrate_four_center_dist_KS       98 10.0    0.019    0.025    0.723    0.731
 mp_isend_dm3                      3540 11.5    0.357    0.727    0.357    0.727
 init_scf_run                         1  3.0    0.000    0.000    0.667    0.667
 scf_env_initial_rho_setup            1  4.0    0.000    0.000    0.643    0.644
 fft_wrap_pw1pw2_30                 196 10.5    0.023    0.026    0.602    0.628
 qs_init_subsys                       1  2.0    0.006    0.006    0.586    0.586
 mp_max_i                           609  3.2    0.347    0.525    0.347    0.525
 scale_and_distribute               196 10.0    0.485    0.519    0.485    0.519
 transfer_rs2pw_10                   98  9.0    0.159    0.175    0.496    0.515
 qs_env_setup                         1  3.0    0.000    0.000    0.495    0.509
 qs_env_rebuild_pw_env                2  3.5    0.000    0.000    0.493    0.507
 pw_env_rebuild                       1  5.0    0.001    0.001    0.493    0.507
 qs_energies_init_hamiltonians        1  3.0    0.000    0.000    0.477    0.477
 build_core_hamiltonian_matrix        1  4.0    0.000    0.000    0.469    0.469
 overlap_condnum                      1  5.0    0.000    0.000    0.464    0.467
 dbt_total                            8  8.0    0.000    0.000    0.456    0.456
 mp_sum_i                            19  9.5    0.270    0.445    0.270    0.445
 mp2_main_alloc_hfx                   1  4.0    0.176    0.445    0.176    0.445
 restraint_control                    1  2.0    0.000    0.000    0.269    0.445
 dbt_contract                         4  9.0    0.001    0.001    0.438    0.438
 pw_grid_setup                        4  6.0    0.000    0.000    0.423    0.438
 pw_grid_setup_internal               4  7.0    0.010    0.010    0.423    0.437
 arnoldi_conjugate_gradient           7  6.0    0.009    0.011    0.404    0.404
 dbt_tas_multiply                     8 11.5    0.000    0.000    0.403    0.404
 dbt_tas_total                        8 12.5    0.001    0.002    0.403    0.403
 dbt_tas_replicate                    8 13.5    0.009    0.011    0.060    0.339
 parser_read_line                 87565  4.0    0.030    0.032    0.335    0.338
 mp_waitall_2                        46 15.8    0.053    0.334    0.053    0.334
 dbt_tas_communicate_buffer          16 15.9    0.001    0.001    0.047    0.327
 dbt_tas_replicate_communicate_       6 14.5    0.000    0.000    0.044    0.325
 pw_grid_sort                         4  8.0    0.223    0.228    0.318    0.324
 rpa_num_int_RPA_matrix_operati     100  7.0    0.001    0.004    0.323    0.324
 pw_scale                           389  9.5    0.256    0.315    0.256    0.315
 calculate_dm_sparse                 97  6.0    0.001    0.001    0.285    0.313
 cp_dbcsr_plus_fm_fm_t               97  7.0    0.001    0.002    0.284    0.310
 parser_read_line_low                97  5.0    0.022    0.138    0.305    0.309
 broadcast_input_information         97  6.0    0.065    0.078    0.284    0.293
 rs_scatter_matrices                 98  7.0    0.001    0.015    0.275    0.280
 dbcsr_sym_matrix_vector_mult      1340  7.0    0.021    0.023    0.168    0.274
 calculate_rho_atom_coeff            98  6.0    0.030    0.129    0.274    0.274
 copy_dbcsr_to_fm                   136  6.5    0.002    0.003    0.250    0.257
 dbcsr_multiply_generic             158  8.1    0.007    0.008    0.231    0.255
 update_ks_atom                      98  8.0    0.021    0.126    0.116    0.223
 calc_mat_Q                         100  8.0    0.000    0.000    0.208    0.216
 contract_S_to_Q                    100  9.0    0.001    0.001    0.196    0.204
 dbcsr_complete_redistribute        334  8.4    0.018    0.028    0.175    0.180
 dbcsr_desymmetrize_deep            138  7.5    0.004    0.008    0.170    0.176
 cp_fm_cholesky_invert              101  8.0    0.166    0.174    0.166    0.174
 fft_wrap_pw1pw2_10                 196 10.5    0.005    0.006    0.144    0.169
 mp_irecv_dv                      12486 11.8    0.078    0.159    0.078    0.159
 mixing_init                          1  5.0    0.146    0.152    0.152    0.153
 mp_alltoall_i22                    472  9.2    0.132    0.142    0.132    0.142
 xc_pw_smooth                        97 10.0    0.000    0.000    0.104    0.141
 start_bse_calculation                1  7.0    0.000    0.000    0.141    0.141
 mp_bcast_i_src                     388  7.0    0.113    0.139    0.113    0.139
 mp_bcast_am_src                     97  7.0    0.088    0.111    0.102    0.127
 dbcsr_add_d                       2089  7.1    0.002    0.002    0.017    0.127
 mp_bcast_dm                        392  9.0    0.095    0.127    0.095    0.127
 dbcsr_add_anytype                 2089  8.1    0.002    0.019    0.015    0.125
 scf_post_calculation_gpw             1  3.0    0.000    0.000    0.120    0.121
 write_available_results              1  4.0    0.000    0.000    0.120    0.121
 vxc_of_r_new                       388  9.0    0.000    0.019    0.003    0.121
 write_mo_free_results                1  5.0    0.013    0.014    0.120    0.121
 dbcsr_rep_row_to_rep_col_vec      1340  8.0    0.007    0.010    0.035    0.121
 make_m2s                           316  9.1    0.005    0.005    0.110    0.114
 cp_fm_cholesky_decompose           102  9.0    0.105    0.108    0.105    0.108
 dbcsr_finalize                    3914 10.7    0.010    0.033    0.036    0.105
 copy_fm_to_dbcsr                   198  8.0    0.001    0.001    0.100    0.105
 multiply_cannon                    158  9.1    0.012    0.012    0.083    0.104
 compute_Erpa_by_freq_int           100  8.0    0.001    0.001    0.103    0.104
 sort_shells                          4  9.0    0.095    0.102    0.095    0.102
 cp_fm_redistribute_start           103  8.0    0.061    0.068    0.078    0.090
 -------------------------------------------------------------------------------

 The number of warnings for this run is : 1
 
 -------------------------------------------------------------------------------
  **** **** ******  **  PROGRAM ENDED AT                 2025-03-18 23:50:58.727
 ***** ** ***  *** **   PROGRAM RAN ON                              i03r05c02s07
 **    ****   ******    PROGRAM RAN BY                                   di38fab
 ***** **    ** ** **   PROGRAM PROCESS ID                               2736711
  **** **  *******  **  PROGRAM STOPPED IN /hppfs/scratch/04/di38fab/05_MOL/W4-1
                                           1+ALK/li_h/aug-cc-pV5Z/GW+BSE
