 DBCSR| CPU Multiplication driver                                           BLAS (U)
 DBCSR| Multrec recursion limit                                              512 (U)
 DBCSR| Multiplication stack size                                           1000 (D)
 DBCSR| Maximum elements for images                                    UNLIMITED (U)
 DBCSR| Multiplicative factor virtual images                                   1 (U)
 DBCSR| Use multiplication densification                                       T (D)
 DBCSR| Multiplication size stacks                                             3 (U)
 DBCSR| Use memory pool for CPU allocation                                     F (U)
 DBCSR| Number of 3D layers                                               SINGLE (U)
 DBCSR| Use MPI memory allocation                                              F (U)
 DBCSR| Use RMA algorithm                                                      F (U)
 DBCSR| Use Communication thread                                               T (U)
 DBCSR| Communication thread load                                             75 (D)
 DBCSR| MPI: My process id                                                     0
 DBCSR| MPI: Number of processes                                              48
 DBCSR| OMP: Current number of threads                                         4
 DBCSR| OMP: Max number of threads                                             4
 DBCSR| Split modifier for TAS multiplication algorithm                  1.0E+00 (U)


  **** **** ******  **  PROGRAM STARTED AT               2025-03-18 23:30:35.631
 ***** ** ***  *** **   PROGRAM STARTED ON                          i02r06c01s06
 **    ****   ******    PROGRAM STARTED BY                               di38fab
 ***** **    ** ** **   PROGRAM PROCESS ID                               1852941
  **** **  *******  **  PROGRAM STARTED IN /hppfs/scratch/04/di38fab/05_MOL/W4-1
                                           1+ALK/h2/aug-cc-pV5Z/GW+BSE

 CP2K| version string:                 CP2K version 2025.1 (Development Version)
 CP2K| source code revision number:                                  git:d2e611a
 CP2K| cp2kflags: omp libint fftw3 libxc parallel scalapack max_contr=4         
 CP2K| is freely available from                            https://www.cp2k.org/
 CP2K| Program compiled at                       Thu 06 Mar 2025 05:09:20 PM CET
 CP2K| Program compiled on                                               login02
 CP2K| Program compiled for                                        Supermuc-foss
 CP2K| Data directory path                  /hppfs/work/pn36zo/di38fab/cp2k/data
 CP2K| Input file name                                                    GW.inp

 GLOBAL| Force Environment number                                              1
 GLOBAL| Basis set file name            /hppfs/scratch/04/di38fab/04_TMD/BASIS_A
 GLOBAL| Potential file name            /hppfs/work/pn36zo/di38fab/cp2k/data/ALL
 GLOBAL| MM Potential file name                                     MM_POTENTIAL
 GLOBAL| Coordinate file name                                      __STD_INPUT__
 GLOBAL| Method name                                                        CP2K
 GLOBAL| Project name                                                       MoS2
 GLOBAL| Run type                                                         ENERGY
 GLOBAL| FFT library                                                       FFTW3
 GLOBAL| Diagonalization library                                       ScaLAPACK
 GLOBAL| DGEMM library                                                      BLAS
 GLOBAL| Orthonormality check for eigenvectors                          DISABLED
 GLOBAL| Matrix multiplication library                                 ScaLAPACK
 GLOBAL| All-to-all communication in single precision                          F
 GLOBAL| FFTs using library dependent lengths                                  F
 GLOBAL| Grid backend                                                       AUTO
 GLOBAL| Global print level                                               MEDIUM
 GLOBAL| MPI I/O enabled                                                       T
 GLOBAL| Total number of message passing processes                            48
 GLOBAL| Number of threads for this process                                    4
 GLOBAL| This output is from process                                           0
 GLOBAL| OpenMP stack size per thread (OMP_STACKSIZE)                    default
 GLOBAL| CPU model name             Intel(R) Xeon(R) Platinum 8174 CPU @ 3.10GHz

 MEMORY| system memory details [Kb]
 MEMORY|                        rank 0           min           max       average
 MEMORY| MemTotal             98436944      98436660      98436944      98436732
 MEMORY| MemFree              83871776      83852072      84083652      83955788
 MEMORY| Buffers                     0             0             0             0
 MEMORY| Cached                2416896       2401104       2419384       2411623
 MEMORY| Slab                  1222136       1214780       1233168       1224633
 MEMORY| SReclaimable           271988        266080        274056        270948
 MEMORY| MemLikelyFree        86560660      86532848      86750836      86638359


 *** Fundamental physical constants (SI units) ***

 *** Literature: B. J. Mohr and B. N. Taylor,
 ***             CODATA recommended values of the fundamental physical
 ***             constants: 2006, Web Version 5.1
 ***             http://physics.nist.gov/constants

 Speed of light in vacuum [m/s]                             2.99792458000000E+08
 Magnetic constant or permeability of vacuum [N/A**2]       1.25663706143592E-06
 Electric constant or permittivity of vacuum [F/m]          8.85418781762039E-12
 Planck constant (h) [J*s]                                  6.62606896000000E-34
 Planck constant (h-bar) [J*s]                              1.05457162825177E-34
 Elementary charge [C]                                      1.60217648700000E-19
 Electron mass [kg]                                         9.10938215000000E-31
 Electron g factor [ ]                                     -2.00231930436220E+00
 Proton mass [kg]                                           1.67262163700000E-27
 Fine-structure constant                                    7.29735253760000E-03
 Rydberg constant [1/m]                                     1.09737315685270E+07
 Avogadro constant [1/mol]                                  6.02214179000000E+23
 Boltzmann constant [J/K]                                   1.38065040000000E-23
 Atomic mass unit [kg]                                      1.66053878200000E-27
 Bohr radius [m]                                            5.29177208590000E-11

 *** Conversion factors ***

 [u] -> [a.u.]                                              1.82288848426455E+03
 [Angstrom] -> [Bohr] = [a.u.]                              1.88972613288564E+00
 [a.u.] = [Bohr] -> [Angstrom]                              5.29177208590000E-01
 [a.u.] -> [s]                                              2.41888432650478E-17
 [a.u.] -> [fs]                                             2.41888432650478E-02
 [a.u.] -> [J]                                              4.35974393937059E-18
 [a.u.] -> [N]                                              8.23872205491840E-08
 [a.u.] -> [K]                                              3.15774647902944E+05
 [a.u.] -> [kJ/mol]                                         2.62549961709828E+03
 [a.u.] -> [kcal/mol]                                       6.27509468713739E+02
 [a.u.] -> [Pa]                                             2.94210107994716E+13
 [a.u.] -> [bar]                                            2.94210107994716E+08
 [a.u.] -> [atm]                                            2.90362800883016E+08
 [a.u.] -> [eV]                                             2.72113838565563E+01
 [a.u.] -> [Hz]                                             6.57968392072181E+15
 [a.u.] -> [1/cm] (wave numbers)                            2.19474631370540E+05
 [a.u./Bohr**2] -> [1/cm]                                   5.14048714338585E+03
 

 CELL_TOP| Volume [angstrom^3]:                                     27000.000000
 CELL_TOP| Vector a [angstrom    30.000     0.000     0.000   |a| =    30.000000
 CELL_TOP| Vector b [angstrom     0.000    30.000     0.000   |b| =    30.000000
 CELL_TOP| Vector c [angstrom     0.000     0.000    30.000   |c| =    30.000000
 CELL_TOP| Angle (b,c), alpha [degree]:                                90.000000
 CELL_TOP| Angle (a,c), beta  [degree]:                                90.000000
 CELL_TOP| Angle (a,b), gamma [degree]:                                90.000000
 CELL_TOP| Numerically orthorhombic:                                         YES
 CELL_TOP| Periodicity                                                      NONE

 GENERATE|  Preliminary Number of Bonds generated:                             0
 GENERATE|  Achieved consistency in connectivity generation.

 CELL| Volume [angstrom^3]:                                         27000.000000
 CELL| Vector a [angstrom]:      30.000     0.000     0.000   |a| =    30.000000
 CELL| Vector b [angstrom]:       0.000    30.000     0.000   |b| =    30.000000
 CELL| Vector c [angstrom]:       0.000     0.000    30.000   |c| =    30.000000
 CELL| Angle (b,c), alpha [degree]:                                    90.000000
 CELL| Angle (a,c), beta  [degree]:                                    90.000000
 CELL| Angle (a,b), gamma [degree]:                                    90.000000
 CELL| Numerically orthorhombic:                                             YES
 CELL| Periodicity                                                          NONE

 CELL_REF| Volume [angstrom^3]:                                     27000.000000
 CELL_REF| Vector a [angstrom    30.000     0.000     0.000   |a| =    30.000000
 CELL_REF| Vector b [angstrom     0.000    30.000     0.000   |b| =    30.000000
 CELL_REF| Vector c [angstrom     0.000     0.000    30.000   |c| =    30.000000
 CELL_REF| Angle (b,c), alpha [degree]:                                90.000000
 CELL_REF| Angle (a,c), beta  [degree]:                                90.000000
 CELL_REF| Angle (a,b), gamma [degree]:                                90.000000
 CELL_REF| Numerically orthorhombic:                                         YES
 CELL_REF| Periodicity                                                      NONE

 *******************************************************************************
 *******************************************************************************
 **                                                                           **
 **     #####                         ##              ##                      **
 **    ##   ##            ##          ##              ##                      **
 **   ##     ##                       ##            ######                    **
 **   ##     ##  ##   ##  ##   #####  ##  ##   ####   ##    #####    #####    **
 **   ##     ##  ##   ##  ##  ##      ## ##   ##      ##   ##   ##  ##   ##   **
 **   ##  ## ##  ##   ##  ##  ##      ####     ###    ##   ######   ######    **
 **    ##  ###   ##   ##  ##  ##      ## ##      ##   ##   ##       ##        **
 **     #######   #####   ##   #####  ##  ##  ####    ##    #####   ##        **
 **           ##                                                    ##        **
 **                                                                           **
 **                                                ... make the atoms dance   **
 **                                                                           **
 **            Copyright (C) by CP2K developers group (2000-2025)             **
 **                      J. Chem. Phys. 152, 194103 (2020)                    **
 **                                                                           **
 *******************************************************************************

 DFT| Spin restricted Kohn-Sham (RKS) calculation                            RKS
 DFT| Multiplicity                                                             1
 DFT| Number of spin states                                                    1
 DFT| Charge                                                                   0
 DFT| Self-interaction correction (SIC)                                       NO
 DFT| Cutoffs: density                                              1.000000E-10
 DFT|          gradient                                             1.000000E-10
 DFT|          tau                                                  1.000000E-10
 DFT|          cutoff_smoothing_range                               0.000000E+00
 DFT| XC density smoothing                                                  NONE
 DFT| XC derivatives                                                          PW

 FUNCTIONAL| PBE:
 FUNCTIONAL| J.P.Perdew, K.Burke, M.Ernzerhof, Phys. Rev. Letter, vol. 77, n 18,
 FUNCTIONAL|  pp. 3865-3868, (1996)sx=0.750sc=1.000{spin unpolarized}           


 QS| Method:                                                                GAPW
 QS| Density plane wave grid type                        NON-SPHERICAL FULLSPACE
 QS| Number of grid levels:                                                    4
 QS| Density cutoff [a.u.]:                                                250.0
 QS| Multi grid cutoff [a.u.]: 1) grid level                               250.0
 QS|                           2) grid level                                83.3
 QS|                           3) grid level                                27.8
 QS|                           4) grid level                                 9.3
 QS| Grid level progression factor:                                          3.0
 QS| Relative density cutoff [a.u.]:                                        50.0
 QS| Interaction thresholds: eps_pgf_orb:                                1.0E-12
 QS|                         eps_filter_matrix:                          0.0E+00
 QS|                         eps_core_charge:                            1.0E-14
 QS|                         eps_rho_gspace:                             1.0E-12
 QS|                         eps_rho_rspace:                             1.0E-12
 QS|                         eps_gvg_rspace:                             1.0E-06
 QS|                         eps_ppl:                                    1.0E-02
 QS|                         eps_ppnl:                                   1.0E-08
 QS| GAPW|      One center basis from orbital basis primitives
 QS| GAPW|                   eps_fit:                                    1.0E-04
 QS| GAPW|                   eps_iso:                                    1.0E-12
 QS| GAPW|                   eps_svd:                                    1.0E-08
 QS| GAPW|                   eps_cpc:                                    1.0E-12
 QS| GAPW|   atom-r-grid: quadrature:                                     GC_LOG
 QS| GAPW|      atom-s-grid:  max l :                                          8
 QS| GAPW|      max_l_rho0 :                                                   2


 ATOMIC KIND INFORMATION

  1. Atomic kind: H                                     Number of atoms:       2

     Orbital Basis Set                                               aug-cc-pV5Z

       Number of orbital shell sets:                                          10
       Number of orbital shells:                                              20
       Number of primitive Cartesian functions:                               23
       Number of Cartesian basis functions:                                  105
       Number of spherical basis functions:                                   80
       Norm type:                                                              2

       Normalised Cartesian orbitals:

                        Set   Shell   Orbital            Exponent    Coefficient

                          1       1    1s                0.020700       0.038894

                          2       1    1s              402.000000       0.000000
                                                        60.240000       0.000000
                                                        13.730000       0.000000
                                                         3.905000       0.000000
                                                         1.283000       0.859172
                                                         0.465500       0.000000
                                                         0.181100       0.000000
                                                         0.072790       0.000000

                          2       2    2s              402.000000       0.000000
                                                        60.240000       0.000000
                                                        13.730000       0.000000
                                                         3.905000       0.000000
                                                         1.283000       0.000000
                                                         0.465500       0.401652
                                                         0.181100       0.000000
                                                         0.072790       0.000000

                          2       3    3s              402.000000       0.017852
                                                        60.240000       0.033364
                                                        13.730000       0.056940
                                                         3.905000       0.088850
                                                         1.283000       0.122259
                                                         0.465500       0.132938
                                                         0.181100       0.086318
                                                         0.072790       0.017622

                          2       4    4s              402.000000       0.000000
                                                        60.240000       0.000000
                                                        13.730000       0.000000
                                                         3.905000       0.000000
                                                         1.283000       0.000000
                                                         0.465500       0.000000
                                                         0.181100       0.197856
                                                         0.072790       0.000000

                          2       5    5s              402.000000       0.000000
                                                        60.240000       0.000000
                                                        13.730000       0.000000
                                                         3.905000       0.000000
                                                         1.283000       0.000000
                                                         0.465500       0.000000
                                                         0.181100       0.000000
                                                         0.072790       0.099877

                          3       1    1px               0.074400       0.055387
                          3       1    1py               0.074400       0.055387
                          3       1    1pz               0.074400       0.055387

                          4       1    1dx2              0.156000       0.063735
                          4       1    1dxy              0.156000       0.110392
                          4       1    1dxz              0.156000       0.110392
                          4       1    1dy2              0.156000       0.063735
                          4       1    1dyz              0.156000       0.110392
                          4       1    1dz2              0.156000       0.063735

                          5       1    1px               4.516000       9.383881
                                                         1.712000       0.000000
                                                         0.649000       0.000000
                                                         0.246000       0.000000
                          5       1    1py               4.516000       9.383881
                                                         1.712000       0.000000
                                                         0.649000       0.000000
                                                         0.246000       0.000000
                          5       1    1pz               4.516000       9.383881
                                                         1.712000       0.000000
                                                         0.649000       0.000000
                                                         0.246000       0.000000

                          5       2    2px               4.516000       0.000000
                                                         1.712000       2.791385
                                                         0.649000       0.000000
                                                         0.246000       0.000000
                          5       2    2py               4.516000       0.000000
                                                         1.712000       2.791385
                                                         0.649000       0.000000
                                                         0.246000       0.000000
                          5       2    2pz               4.516000       0.000000
                                                         1.712000       2.791385
                                                         0.649000       0.000000
                                                         0.246000       0.000000

                          5       3    3px               4.516000       0.000000
                                                         1.712000       0.000000
                                                         0.649000       0.830321
                                                         0.246000       0.000000
                          5       3    3py               4.516000       0.000000
                                                         1.712000       0.000000
                                                         0.649000       0.830321
                                                         0.246000       0.000000
                          5       3    3pz               4.516000       0.000000
                                                         1.712000       0.000000
                                                         0.649000       0.830321
                                                         0.246000       0.000000

                          5       4    4px               4.516000       0.000000
                                                         1.712000       0.000000
                                                         0.649000       0.000000
                                                         0.246000       0.246950
                          5       4    4py               4.516000       0.000000
                                                         1.712000       0.000000
                                                         0.649000       0.000000
                                                         0.246000       0.246950
                          5       4    4pz               4.516000       0.000000
                                                         1.712000       0.000000
                                                         0.649000       0.000000
                                                         0.246000       0.246950

                          6       1    1fx3              0.274000       0.079964
                          6       1    1fx2y             0.274000       0.178804
                          6       1    1fx2z             0.274000       0.178804
                          6       1    1fxy2             0.274000       0.178804
                          6       1    1fxyz             0.274000       0.309698
                          6       1    1fxz2             0.274000       0.178804
                          6       1    1fy3              0.274000       0.079964
                          6       1    1fy2z             0.274000       0.178804
                          6       1    1fyz2             0.274000       0.178804
                          6       1    1fz3              0.274000       0.079964

                          7       1    1dx2              2.950000      10.929442
                                                         1.206000       0.000000
                                                         0.493000       0.000000
                          7       1    1dxy              2.950000      18.930349
                                                         1.206000       0.000000
                                                         0.493000       0.000000
                          7       1    1dxz              2.950000      18.930349
                                                         1.206000       0.000000
                                                         0.493000       0.000000
                          7       1    1dy2              2.950000      10.929442
                                                         1.206000       0.000000
                                                         0.493000       0.000000
                          7       1    1dyz              2.950000      18.930349
                                                         1.206000       0.000000
                                                         0.493000       0.000000
                          7       1    1dz2              2.950000      10.929442
                                                         1.206000       0.000000
                                                         0.493000       0.000000

                          7       2    2dx2              2.950000       0.000000
                                                         1.206000       2.284374
                                                         0.493000       0.000000
                          7       2    2dxy              2.950000       0.000000
                                                         1.206000       3.956652
                                                         0.493000       0.000000
                          7       2    2dxz              2.950000       0.000000
                                                         1.206000       3.956652
                                                         0.493000       0.000000
                          7       2    2dy2              2.950000       0.000000
                                                         1.206000       2.284374
                                                         0.493000       0.000000
                          7       2    2dyz              2.950000       0.000000
                                                         1.206000       3.956652
                                                         0.493000       0.000000
                          7       2    2dz2              2.950000       0.000000
                                                         1.206000       2.284374
                                                         0.493000       0.000000

                          7       3    3dx2              2.950000       0.000000
                                                         1.206000       0.000000
                                                         0.493000       0.477410
                          7       3    3dxy              2.950000       0.000000
                                                         1.206000       0.000000
                                                         0.493000       0.826898
                          7       3    3dxz              2.950000       0.000000
                                                         1.206000       0.000000
                                                         0.493000       0.826898
                          7       3    3dy2              2.950000       0.000000
                                                         1.206000       0.000000
                                                         0.493000       0.477410
                          7       3    3dyz              2.950000       0.000000
                                                         1.206000       0.000000
                                                         0.493000       0.826898
                          7       3    3dz2              2.950000       0.000000
                                                         1.206000       0.000000
                                                         0.493000       0.477410

                          8       1    1gx4              0.543000       0.207556
                          8       1    1gx3y             0.543000       0.549141
                          8       1    1gx3z             0.543000       0.549141
                          8       1    1gx2y2            0.543000       0.708938
                          8       1    1gx2yz            0.543000       1.227917
                          8       1    1gx2z2            0.543000       0.708938
                          8       1    1gxy3             0.543000       0.549141
                          8       1    1gxy2z            0.543000       1.227917
                          8       1    1gxyz2            0.543000       1.227917
                          8       1    1gxz3             0.543000       0.549141
                          8       1    1gy4              0.543000       0.207556
                          8       1    1gy3z             0.543000       0.549141
                          8       1    1gy2z2            0.543000       0.708938
                          8       1    1gyz3             0.543000       0.549141
                          8       1    1gz4              0.543000       0.207556

                          9       1    1fx3              2.506000      11.632200
                                                         0.875000       0.000000
                          9       1    1fx2y             2.506000      26.010389
                                                         0.875000       0.000000
                          9       1    1fx2z             2.506000      26.010389
                                                         0.875000       0.000000
                          9       1    1fxy2             2.506000      26.010389
                                                         0.875000       0.000000
                          9       1    1fxyz             2.506000      45.051316
                                                         0.875000       0.000000
                          9       1    1fxz2             2.506000      26.010389
                                                         0.875000       0.000000
                          9       1    1fy3              2.506000      11.632200
                                                         0.875000       0.000000
                          9       1    1fy2z             2.506000      26.010389
                                                         0.875000       0.000000
                          9       1    1fyz2             2.506000      26.010389
                                                         0.875000       0.000000
                          9       1    1fz3              2.506000      11.632200
                                                         0.875000       0.000000

                          9       2    2fx3              2.506000       0.000000
                                                         0.875000       1.090116
                          9       2    2fx2y             2.506000       0.000000
                                                         0.875000       2.437573
                          9       2    2fx2z             2.506000       0.000000
                                                         0.875000       2.437573
                          9       2    2fxy2             2.506000       0.000000
                                                         0.875000       2.437573
                          9       2    2fxyz             2.506000       0.000000
                                                         0.875000       4.222000
                          9       2    2fxz2             2.506000       0.000000
                                                         0.875000       2.437573
                          9       2    2fy3              2.506000       0.000000
                                                         0.875000       1.090116
                          9       2    2fy2z             2.506000       0.000000
                                                         0.875000       2.437573
                          9       2    2fyz2             2.506000       0.000000
                                                         0.875000       2.437573
                          9       2    2fz3              2.506000       0.000000
                                                         0.875000       1.090116

                         10       1    1gx4              2.358000      11.774186
                         10       1    1gx3y             2.358000      31.151567
                         10       1    1gx3z             2.358000      31.151567
                         10       1    1gx2y2            2.358000      40.216500
                         10       1    1gx2yz            2.358000      69.657021
                         10       1    1gx2z2            2.358000      40.216500
                         10       1    1gxy3             2.358000      31.151567
                         10       1    1gxy2z            2.358000      69.657021
                         10       1    1gxyz2            2.358000      69.657021
                         10       1    1gxz3             2.358000      31.151567
                         10       1    1gy4              2.358000      11.774186
                         10       1    1gy3z             2.358000      31.151567
                         10       1    1gy2z2            2.358000      40.216500
                         10       1    1gyz3             2.358000      31.151567
                         10       1    1gz4              2.358000      11.774186

     RI Auxiliary Basis Set                                    aug-cc-pV5Z-OPTRI

       Number of orbital shell sets:                                          17
       Number of orbital shells:                                              17
       Number of primitive Cartesian functions:                               17
       Number of Cartesian basis functions:                                  115
       Number of spherical basis functions:                                   81
       Norm type:                                                              2

       Normalised Cartesian orbitals:

                        Set   Shell   Orbital            Exponent    Coefficient

                          1       1    1s                0.306678       0.293712

                          2       1    1fx3              0.582788       0.436871
                          2       1    1fx2y             0.582788       0.976873
                          2       1    1fx2z             0.582788       0.976873
                          2       1    1fxy2             0.582788       0.976873
                          2       1    1fxyz             0.582788       1.691994
                          2       1    1fxz2             0.582788       0.976873
                          2       1    1fy3              0.582788       0.436871
                          2       1    1fy2z             0.582788       0.976873
                          2       1    1fyz2             0.582788       0.976873
                          2       1    1fz3              0.582788       0.436871

                          3       1    1dx2              0.740674       0.973323
                          3       1    1dxy              0.740674       1.685844
                          3       1    1dxz              0.740674       1.685844
                          3       1    1dy2              0.740674       0.973323
                          3       1    1dyz              0.740674       1.685844
                          3       1    1dz2              0.740674       0.973323

                          4       1    1s                0.854346       0.633338

                          5       1    1px               0.977704       1.385796
                          5       1    1py               0.977704       1.385796
                          5       1    1pz               0.977704       1.385796

                          6       1    1gx4              1.260673       2.104225
                          6       1    1gx3y             1.260673       5.567256
                          6       1    1gx3z             1.260673       5.567256
                          6       1    1gx2y2            1.260673       7.187297
                          6       1    1gx2yz            1.260673      12.448763
                          6       1    1gx2z2            1.260673       7.187297
                          6       1    1gxy3             1.260673       5.567256
                          6       1    1gxy2z            1.260673      12.448763
                          6       1    1gxyz2            1.260673      12.448763
                          6       1    1gxz3             1.260673       5.567256
                          6       1    1gy4              1.260673       2.104225
                          6       1    1gy3z             1.260673       5.567256
                          6       1    1gy2z2            1.260673       7.187297
                          6       1    1gyz3             1.260673       5.567256
                          6       1    1gz4              1.260673       2.104225

                          7       1    1fx3              1.313322       2.718252
                          7       1    1fx2y             1.313322       6.078196
                          7       1    1fx2z             1.313322       6.078196
                          7       1    1fxy2             1.313322       6.078196
                          7       1    1fxyz             1.313322      10.527744
                          7       1    1fxz2             1.313322       6.078196
                          7       1    1fy3              1.313322       2.718252
                          7       1    1fy2z             1.313322       6.078196
                          7       1    1fyz2             1.313322       6.078196
                          7       1    1fz3              1.313322       2.718252

                          8       1    1dx2              1.868623       4.915553
                          8       1    1dxy              1.868623       8.513988
                          8       1    1dxz              1.868623       8.513988
                          8       1    1dy2              1.868623       4.915553
                          8       1    1dyz              1.868623       8.513988
                          8       1    1dz2              1.868623       4.915553

                          9       1    1s                2.242991       1.306263

                         10       1    1hx5              2.510965      14.785170
                         10       1    1hx4y             2.510965      44.355509
                         10       1    1hx4z             2.510965      44.355509
                         10       1    1hx3y2            2.510965      67.754159
                         10       1    1hx3yz            2.510965     117.353645
                         10       1    1hx3z2            2.510965      67.754159
                         10       1    1hx2y3            2.510965      67.754159
                         10       1    1hx2y2z           2.510965     151.502904
                         10       1    1hx2yz2           2.510965     151.502904
                         10       1    1hx2z3            2.510965      67.754159
                         10       1    1hxy4             2.510965      44.355509
                         10       1    1hxy3z            2.510965     117.353645
                         10       1    1hxy2z2           2.510965     151.502904
                         10       1    1hxyz3            2.510965     117.353645
                         10       1    1hxz4             2.510965      44.355509
                         10       1    1hy5              2.510965      14.785170
                         10       1    1hy4z             2.510965      44.355509
                         10       1    1hy3z2            2.510965      67.754159
                         10       1    1hy2z3            2.510965      67.754159
                         10       1    1hyz4             2.510965      44.355509
                         10       1    1hz5              2.510965      14.785170

                         11       1    1px               2.624145       4.760744
                         11       1    1py               2.624145       4.760744
                         11       1    1pz               2.624145       4.760744

                         12       1    1gx4              3.525409      35.584558
                         12       1    1gx3y             3.525409      94.147891
                         12       1    1gx3z             3.525409      94.147891
                         12       1    1gx2y2            3.525409     121.544404
                         12       1    1gx2yz            3.525409     210.521084
                         12       1    1gx2z2            3.525409     121.544404
                         12       1    1gxy3             3.525409      94.147891
                         12       1    1gxy2z            3.525409     210.521084
                         12       1    1gxyz2            3.525409     210.521084
                         12       1    1gxz3             3.525409      94.147891
                         12       1    1gy4              3.525409      35.584558
                         12       1    1gy3z             3.525409      94.147891
                         12       1    1gy2z2            3.525409     121.544404
                         12       1    1gyz3             3.525409      94.147891
                         12       1    1gz4              3.525409      35.584558

                         13       1    1fx3              3.758818      28.961421
                         13       1    1fx2y             3.758818      64.759707
                         13       1    1fx2z             3.758818      64.759707
                         13       1    1fxy2             3.758818      64.759707
                         13       1    1fxyz             3.758818     112.167102
                         13       1    1fxz2             3.758818      64.759707
                         13       1    1fy3              3.758818      28.961421
                         13       1    1fy2z             3.758818      64.759707
                         13       1    1fyz2             3.758818      64.759707
                         13       1    1fz3              3.758818      28.961421

                         14       1    1dx2              4.580832      23.608158
                         14       1    1dxy              4.580832      40.890528
                         14       1    1dxz              4.580832      40.890528
                         14       1    1dy2              4.580832      23.608158
                         14       1    1dyz              4.580832      40.890528
                         14       1    1dz2              4.580832      23.608158

                         15       1    1px               6.794656      15.636856
                         15       1    1py               6.794656      15.636856
                         15       1    1pz               6.794656      15.636856

                         16       1    1s                7.257089       3.151243

                         17       1    1px              22.632735      70.365761
                         17       1    1py              22.632735      70.365761
                         17       1    1pz              22.632735      70.365761

       Atomic covalent radius [Angstrom]:                                  0.320

       Atomic van der Waals radius [Angstrom]:                             1.090

     The atoms of this atomic kind are PAW atoms (GAPW):
       Hard Gaussian function radius:                                      1.200
       Rho0 radius:                                                        1.200
       Maximum GTO radius used for PAW projector construction:            24.566

     GAPW Soft Basis Set                                        aug-cc-pV5Z_soft

       Number of orbital shell sets:                                          10
       Number of orbital shells:                                              20
       Number of primitive Cartesian functions:                               20
       Number of Cartesian basis functions:                                  105
       Number of spherical basis functions:                                   80
       Norm type:                                                              2

       Normalised Cartesian orbitals:

                        Set   Shell   Orbital            Exponent    Coefficient

                          1       1    1s                0.020700       0.038894

                          2       1    1s                3.905000       0.000000
                                                         1.283000       0.859172
                                                         0.465500       0.000000
                                                         0.181100       0.000000
                                                         0.072790       0.000000

                          2       2    2s                3.905000       0.000000
                                                         1.283000       0.000000
                                                         0.465500       0.401652
                                                         0.181100       0.000000
                                                         0.072790       0.000000

                          2       3    3s                3.905000       0.088850
                                                         1.283000       0.122259
                                                         0.465500       0.132938
                                                         0.181100       0.086318
                                                         0.072790       0.017622

                          2       4    4s                3.905000       0.000000
                                                         1.283000       0.000000
                                                         0.465500       0.000000
                                                         0.181100       0.197856
                                                         0.072790       0.000000

                          2       5    5s                3.905000       0.000000
                                                         1.283000       0.000000
                                                         0.465500       0.000000
                                                         0.181100       0.000000
                                                         0.072790       0.099877

                          3       1    1px               0.074400       0.055387
                          3       1    1py               0.074400       0.055387
                          3       1    1pz               0.074400       0.055387

                          4       1    1dx2              0.156000       0.063735
                          4       1    1dxy              0.156000       0.110392
                          4       1    1dxz              0.156000       0.110392
                          4       1    1dy2              0.156000       0.063735
                          4       1    1dyz              0.156000       0.110392
                          4       1    1dz2              0.156000       0.063735

                          5       1    1px               4.516000       9.383881
                                                         1.712000       0.000000
                                                         0.649000       0.000000
                                                         0.246000       0.000000
                          5       1    1py               4.516000       9.383881
                                                         1.712000       0.000000
                                                         0.649000       0.000000
                                                         0.246000       0.000000
                          5       1    1pz               4.516000       9.383881
                                                         1.712000       0.000000
                                                         0.649000       0.000000
                                                         0.246000       0.000000

                          5       2    2px               4.516000       0.000000
                                                         1.712000       2.791385
                                                         0.649000       0.000000
                                                         0.246000       0.000000
                          5       2    2py               4.516000       0.000000
                                                         1.712000       2.791385
                                                         0.649000       0.000000
                                                         0.246000       0.000000
                          5       2    2pz               4.516000       0.000000
                                                         1.712000       2.791385
                                                         0.649000       0.000000
                                                         0.246000       0.000000

                          5       3    3px               4.516000       0.000000
                                                         1.712000       0.000000
                                                         0.649000       0.830321
                                                         0.246000       0.000000
                          5       3    3py               4.516000       0.000000
                                                         1.712000       0.000000
                                                         0.649000       0.830321
                                                         0.246000       0.000000
                          5       3    3pz               4.516000       0.000000
                                                         1.712000       0.000000
                                                         0.649000       0.830321
                                                         0.246000       0.000000

                          5       4    4px               4.516000       0.000000
                                                         1.712000       0.000000
                                                         0.649000       0.000000
                                                         0.246000       0.246950
                          5       4    4py               4.516000       0.000000
                                                         1.712000       0.000000
                                                         0.649000       0.000000
                                                         0.246000       0.246950
                          5       4    4pz               4.516000       0.000000
                                                         1.712000       0.000000
                                                         0.649000       0.000000
                                                         0.246000       0.246950

                          6       1    1fx3              0.274000       0.079964
                          6       1    1fx2y             0.274000       0.178804
                          6       1    1fx2z             0.274000       0.178804
                          6       1    1fxy2             0.274000       0.178804
                          6       1    1fxyz             0.274000       0.309698
                          6       1    1fxz2             0.274000       0.178804
                          6       1    1fy3              0.274000       0.079964
                          6       1    1fy2z             0.274000       0.178804
                          6       1    1fyz2             0.274000       0.178804
                          6       1    1fz3              0.274000       0.079964

                          7       1    1dx2              2.950000      10.929442
                                                         1.206000       0.000000
                                                         0.493000       0.000000
                          7       1    1dxy              2.950000      18.930349
                                                         1.206000       0.000000
                                                         0.493000       0.000000
                          7       1    1dxz              2.950000      18.930349
                                                         1.206000       0.000000
                                                         0.493000       0.000000
                          7       1    1dy2              2.950000      10.929442
                                                         1.206000       0.000000
                                                         0.493000       0.000000
                          7       1    1dyz              2.950000      18.930349
                                                         1.206000       0.000000
                                                         0.493000       0.000000
                          7       1    1dz2              2.950000      10.929442
                                                         1.206000       0.000000
                                                         0.493000       0.000000

                          7       2    2dx2              2.950000       0.000000
                                                         1.206000       2.284374
                                                         0.493000       0.000000
                          7       2    2dxy              2.950000       0.000000
                                                         1.206000       3.956652
                                                         0.493000       0.000000
                          7       2    2dxz              2.950000       0.000000
                                                         1.206000       3.956652
                                                         0.493000       0.000000
                          7       2    2dy2              2.950000       0.000000
                                                         1.206000       2.284374
                                                         0.493000       0.000000
                          7       2    2dyz              2.950000       0.000000
                                                         1.206000       3.956652
                                                         0.493000       0.000000
                          7       2    2dz2              2.950000       0.000000
                                                         1.206000       2.284374
                                                         0.493000       0.000000

                          7       3    3dx2              2.950000       0.000000
                                                         1.206000       0.000000
                                                         0.493000       0.477410
                          7       3    3dxy              2.950000       0.000000
                                                         1.206000       0.000000
                                                         0.493000       0.826898
                          7       3    3dxz              2.950000       0.000000
                                                         1.206000       0.000000
                                                         0.493000       0.826898
                          7       3    3dy2              2.950000       0.000000
                                                         1.206000       0.000000
                                                         0.493000       0.477410
                          7       3    3dyz              2.950000       0.000000
                                                         1.206000       0.000000
                                                         0.493000       0.826898
                          7       3    3dz2              2.950000       0.000000
                                                         1.206000       0.000000
                                                         0.493000       0.477410

                          8       1    1gx4              0.543000       0.207556
                          8       1    1gx3y             0.543000       0.549141
                          8       1    1gx3z             0.543000       0.549141
                          8       1    1gx2y2            0.543000       0.708938
                          8       1    1gx2yz            0.543000       1.227917
                          8       1    1gx2z2            0.543000       0.708938
                          8       1    1gxy3             0.543000       0.549141
                          8       1    1gxy2z            0.543000       1.227917
                          8       1    1gxyz2            0.543000       1.227917
                          8       1    1gxz3             0.543000       0.549141
                          8       1    1gy4              0.543000       0.207556
                          8       1    1gy3z             0.543000       0.549141
                          8       1    1gy2z2            0.543000       0.708938
                          8       1    1gyz3             0.543000       0.549141
                          8       1    1gz4              0.543000       0.207556

                          9       1    1fx3              2.506000      11.632200
                                                         0.875000       0.000000
                          9       1    1fx2y             2.506000      26.010389
                                                         0.875000       0.000000
                          9       1    1fx2z             2.506000      26.010389
                                                         0.875000       0.000000
                          9       1    1fxy2             2.506000      26.010389
                                                         0.875000       0.000000
                          9       1    1fxyz             2.506000      45.051316
                                                         0.875000       0.000000
                          9       1    1fxz2             2.506000      26.010389
                                                         0.875000       0.000000
                          9       1    1fy3              2.506000      11.632200
                                                         0.875000       0.000000
                          9       1    1fy2z             2.506000      26.010389
                                                         0.875000       0.000000
                          9       1    1fyz2             2.506000      26.010389
                                                         0.875000       0.000000
                          9       1    1fz3              2.506000      11.632200
                                                         0.875000       0.000000

                          9       2    2fx3              2.506000       0.000000
                                                         0.875000       1.090116
                          9       2    2fx2y             2.506000       0.000000
                                                         0.875000       2.437573
                          9       2    2fx2z             2.506000       0.000000
                                                         0.875000       2.437573
                          9       2    2fxy2             2.506000       0.000000
                                                         0.875000       2.437573
                          9       2    2fxyz             2.506000       0.000000
                                                         0.875000       4.222000
                          9       2    2fxz2             2.506000       0.000000
                                                         0.875000       2.437573
                          9       2    2fy3              2.506000       0.000000
                                                         0.875000       1.090116
                          9       2    2fy2z             2.506000       0.000000
                                                         0.875000       2.437573
                          9       2    2fyz2             2.506000       0.000000
                                                         0.875000       2.437573
                          9       2    2fz3              2.506000       0.000000
                                                         0.875000       1.090116

                         10       1    1gx4              2.358000      11.774186
                         10       1    1gx3y             2.358000      31.151567
                         10       1    1gx3z             2.358000      31.151567
                         10       1    1gx2y2            2.358000      40.216500
                         10       1    1gx2yz            2.358000      69.657021
                         10       1    1gx2z2            2.358000      40.216500
                         10       1    1gxy3             2.358000      31.151567
                         10       1    1gxy2z            2.358000      69.657021
                         10       1    1gxyz2            2.358000      69.657021
                         10       1    1gxz3             2.358000      31.151567
                         10       1    1gy4              2.358000      11.774186
                         10       1    1gy3z             2.358000      31.151567
                         10       1    1gy2z2            2.358000      40.216500
                         10       1    1gyz3             2.358000      31.151567
                         10       1    1gz4              2.358000      11.774186

     AE Potential information for                                            ALL

       Description:                                       All-electron potential
                                          Krack, Parrinello, PCCP 2, 2105 (2000)

       Gaussian exponent of the core charge distribution:              12.500000
       Electronic configuration (s p d ...):                           1   0   0


 MOLECULE KIND INFORMATION


 All atoms are their own molecule, skipping detailed information


 TOTAL NUMBERS AND MAXIMUM NUMBERS

  Total number of            - Atomic kinds:                                   1
                             - Atoms:                                          2
                             - Shell sets:                                    20
                             - Shells:                                        40
                             - Primitive Cartesian functions:                 46
                             - Cartesian basis functions:                    210
                             - Spherical basis functions:                    160

  Maximum angular momentum of the orbital basis functions:                     4


 MODULE QUICKSTEP: ATOMIC COORDINATES IN ANGSTROM

   Atom Kind Element         X             Y             Z       Z(eff)     Mass
      1    1 H     1     15.370946     15.000000     15.000000   1.0000   1.0079
      2    1 H     1     14.629054     15.000000     15.000000   1.0000   1.0079



 SCF PARAMETERS         Density guess:                                    ATOMIC
                        --------------------------------------------------------
                        max_scf:                                             500
                        max_scf_history:                                       0
                        max_diis:                                              4
                        --------------------------------------------------------
                        eps_scf:                                        1.00E-06
                        eps_scf_history:                                0.00E+00
                        eps_diis:                                       1.00E-01
                        eps_eigval:                                     1.00E-05
                        --------------------------------------------------------
                        level_shift [a.u.]:                             0.000000
                        added MOs                                       159    0
                        --------------------------------------------------------
                        Mixing method:                            BROYDEN_MIXING
                                                charge density mixing in g-space
                        --------------------------------------------------------
                        No outer SCF

 PW_GRID| Information for grid number                                          1
 PW_GRID| Grid distributed over                                    48 processors
 PW_GRID| Real space group dimensions                                    48    1
 PW_GRID| the grid is blocked:                                                NO
 PW_GRID| Cutoff [a.u.]                                                    250.0
 PW_GRID| spherical cutoff:                                                   NO
 PW_GRID|   Bounds   1           -202     202                Points:         405
 PW_GRID|   Bounds   2           -202     202                Points:         405
 PW_GRID|   Bounds   3           -202     202                Points:         405
 PW_GRID| Volume element (a.u.^3)  0.2743E-02     Volume (a.u.^3)    182205.0337
 PW_GRID| Grid span                                                    FULLSPACE
 PW_GRID|   Distribution                         Average         Max         Min
 PW_GRID|   G-Vectors                          1383960.9     1384290     1383885
 PW_GRID|   G-Rays                                3417.2        3418        3417
 PW_GRID|   Real Space Points                  1383960.9     1476225     1312200

 PW_GRID| Information for grid number                                          2
 PW_GRID| Number of the reference grid                                         1
 PW_GRID| Grid distributed over                                    48 processors
 PW_GRID| Real space group dimensions                                    48    1
 PW_GRID| the grid is blocked:                                                NO
 PW_GRID| Cutoff [a.u.]                                                     83.3
 PW_GRID| spherical cutoff:                                                   NO
 PW_GRID|   Bounds   1           -120     119                Points:         240
 PW_GRID|   Bounds   2           -120     119                Points:         240
 PW_GRID|   Bounds   3           -120     119                Points:         240
 PW_GRID| Volume element (a.u.^3)  0.1318E-01     Volume (a.u.^3)    182205.0337
 PW_GRID| Grid span                                                    FULLSPACE
 PW_GRID|   Distribution                         Average         Max         Min
 PW_GRID|   G-Vectors                           288000.0      288720      287520
 PW_GRID|   G-Rays                                1200.0        1203        1198
 PW_GRID|   Real Space Points                   288000.0      288000      288000

 PW_GRID| Information for grid number                                          3
 PW_GRID| Number of the reference grid                                         1
 PW_GRID| Grid distributed over                                    48 processors
 PW_GRID| Real space group dimensions                                    48    1
 PW_GRID| the grid is blocked:                                                NO
 PW_GRID| Cutoff [a.u.]                                                     27.8
 PW_GRID| spherical cutoff:                                                   NO
 PW_GRID|   Bounds   1            -67      67                Points:         135
 PW_GRID|   Bounds   2            -67      67                Points:         135
 PW_GRID|   Bounds   3            -67      67                Points:         135
 PW_GRID| Volume element (a.u.^3)  0.7406E-01     Volume (a.u.^3)    182205.0337
 PW_GRID| Grid span                                                    FULLSPACE
 PW_GRID|   Distribution                         Average         Max         Min
 PW_GRID|   G-Vectors                            51257.8       51570       51030
 PW_GRID|   G-Rays                                 379.7         382         378
 PW_GRID|   Real Space Points                    51257.8       54675       36450

 PW_GRID| Information for grid number                                          4
 PW_GRID| Number of the reference grid                                         1
 PW_GRID| Grid distributed over                                    48 processors
 PW_GRID| Real space group dimensions                                    48    1
 PW_GRID| the grid is blocked:                                                NO
 PW_GRID| Cutoff [a.u.]                                                      9.3
 PW_GRID| spherical cutoff:                                                   NO
 PW_GRID|   Bounds   1            -40      39                Points:          80
 PW_GRID|   Bounds   2            -40      39                Points:          80
 PW_GRID|   Bounds   3            -40      39                Points:          80
 PW_GRID| Volume element (a.u.^3)  0.3559         Volume (a.u.^3)    182205.0337
 PW_GRID| Grid span                                                    FULLSPACE
 PW_GRID|   Distribution                         Average         Max         Min
 PW_GRID|   G-Vectors                            10666.7       10800       10560
 PW_GRID|   G-Rays                                 133.3         135         132
 PW_GRID|   Real Space Points                    10666.7       12800        6400

 POISSON| Solver                                                         WAVELET
 POISSON| Wavelet| Scaling function                                           40
 POISSON| Periodicity                                                       NONE

 RS_GRID| Information for grid number                                          1
 RS_GRID|   Bounds   1           -202     202                Points:         405
 RS_GRID|   Bounds   2           -202     202                Points:         405
 RS_GRID|   Bounds   3           -202     202                Points:         405
 RS_GRID| Real space distribution over                                  3 groups
 RS_GRID| Real space distribution along direction                              1
 RS_GRID| Border size                                                         36
 RS_GRID| Real space distribution over                                  4 groups
 RS_GRID| Real space distribution along direction                              2
 RS_GRID| Border size                                                         36
 RS_GRID| Real space distribution over                                  4 groups
 RS_GRID| Real space distribution along direction                              3
 RS_GRID| Border size                                                         36
 RS_GRID|   Distribution                         Average         Max         Min
 RS_GRID|   Planes                                 207.0         207         207
 RS_GRID|   Distribution                         Average         Max         Min
 RS_GRID|   Planes                                 173.2         174         173
 RS_GRID|   Distribution                         Average         Max         Min
 RS_GRID|   Planes                                 173.2         174         173

 RS_GRID| Information for grid number                                          2
 RS_GRID|   Bounds   1           -120     119                Points:         240
 RS_GRID|   Bounds   2           -120     119                Points:         240
 RS_GRID|   Bounds   3           -120     119                Points:         240
 RS_GRID| Real space distribution over                                  3 groups
 RS_GRID| Real space distribution along direction                              1
 RS_GRID| Border size                                                         37
 RS_GRID| Real space distribution over                                  4 groups
 RS_GRID| Real space distribution along direction                              2
 RS_GRID| Border size                                                         37
 RS_GRID| Real space distribution over                                  4 groups
 RS_GRID| Real space distribution along direction                              3
 RS_GRID| Border size                                                         37
 RS_GRID|   Distribution                         Average         Max         Min
 RS_GRID|   Planes                                 154.0         154         154
 RS_GRID|   Distribution                         Average         Max         Min
 RS_GRID|   Planes                                 134.0         134         134
 RS_GRID|   Distribution                         Average         Max         Min
 RS_GRID|   Planes                                 134.0         134         134

 RS_GRID| Information for grid number                                          3
 RS_GRID|   Bounds   1            -67      67                Points:         135
 RS_GRID|   Bounds   2            -67      67                Points:         135
 RS_GRID|   Bounds   3            -67      67                Points:         135
 RS_GRID| Real space fully replicated
 RS_GRID| Group size                                                           1

 RS_GRID| Information for grid number                                          4
 RS_GRID|   Bounds   1            -40      39                Points:          80
 RS_GRID|   Bounds   2            -40      39                Points:          80
 RS_GRID|   Bounds   3            -40      39                Points:          80
 RS_GRID| Real space fully replicated
 RS_GRID| Group size                                                           1

  HFX_INFO| Replica ID:                                                        1
  HFX_INFO| FRACTION:                                               0.2500000000
  HFX_INFO| Interaction Potential:                                       COULOMB
  HFX_INFO| EPS_SCHWARZ:                                                 1.0E-10
  HFX_INFO| EPS_SCHWARZ_FORCES                                           1.0E-08
  HFX_INFO| EPS_STORAGE_SCALING:                                         1.0E+00
  HFX_INFO| NBINS:                                                            64
  HFX_INFO| BLOCK_SIZE:                                                        1
  HFX_INFO| Number of periodic shells considered:                           NONE
  HFX_INFO| Number of periodic cells considered:                            NONE

 
 RI-RPA| using GPW style
 

 OVERLAP MATRIX CONDITION NUMBER
 1-Norm Condition Number (Estimate)
   CN : |A|*|A^-1|:  1.167E+001 *  2.305E+005   = 2.689E+006  Log(1-CN):  6.4296
 1-Norm and 2-Norm Condition Numbers using Diagonalization
   CN : |A|*|A^-1|:  1.167E+001 *  2.305E+005   = 2.689E+006  Log(1-CN):  6.4296
   CN : max/min ev:  8.078E+000 /  5.661E-006   = 1.427E+006  Log(2-CN):  6.1544

 Number of electrons:                                                          2
 Number of occupied orbitals:                                                  1
 Number of molecular orbitals:                                               160

 Number of orbital functions:                                                160

 *** WARNING in qs_scf_initialization.F:1022 :: The numerical rank of the  ***
 *** overlap matrix is lower than the number of requested MOs! Reduce the  ***
 *** number of MOs to the number of available MOs. If necessary, request a ***
 *** lower number of MOs or increase EPS_DEFAULT or EPS_PGF_ORB.           ***

 Number of independent orbital functions:                                    159

 Extrapolation method: initial_guess

 Atomic guess: The first density matrix is obtained in terms of atomic orbitals
               and electronic configurations assigned to each atomic kind

 Guess for atomic kind: H

 Electronic structure
    Total number of core electrons                                          0.00
    Total number of valence electrons                                       1.00
    Total number of electrons                                               1.00
    Multiplicity                                                   not specified
    S      1.00


 *******************************************************************************
                  Iteration          Convergence                     Energy [au]
 *******************************************************************************
                          1        0.870243E-02                  -0.445422674463
                          2        0.110889E-02                  -0.445523263140
                          3        0.118657E-03                  -0.445525854302
                          4        0.532983E-06                  -0.445525882695

 Energy components [Hartree]           Total Energy ::           -0.445525882695
                                        Band Energy ::           -0.233289836501
                                     Kinetic Energy ::            0.424578936317
                                   Potential Energy ::           -0.870104819011
                                      Virial (-V/T) ::            2.049335811520
                                        Core Energy ::           -0.495925394927
                                          XC Energy ::           -0.232271865119
                                     Coulomb Energy ::            0.282671377352

 Orbital energies  State     L     Occupation   Energy[a.u.]          Energy[eV]

                       1     0          1.000      -0.233290           -6.348139


 Total Electron Density at R=0:                                         0.265461
 Re-scaling the density matrix to get the right number of electrons
                  # Electrons              Trace(P)               Scaling factor
[...]
 Efficient and accurate three-dimensional Poisson solver for surface problems.
 https://doi.org/10.1063/1.2754685

 J. VandeVondele, J. Hutter.
 J. Chem. Phys. 127, 114105 (2007).
 Gaussian basis sets for accurate calculations on molecular systems in gas and 
 condensed phases.
 https://doi.org/10.1063/1.2770708

 L. Genovese, T. Deutsch, A. Neelov, S. Goedecker, G. Beylkin.
 J. Chem. Phys. 125, 074105 (2006).
 Efficient solution of Poisson's equation with free boundary conditions.
 https://doi.org/10.1063/1.2335442

 M. Frigo, S. G. Johnson.
 Proc. IEEE 93, 216-231 (2005).
 The design and implementation of FFTW3.
 https://doi.org/10.1109/JPROC.2004.840301

 M. Krack, M. Parrinello.
 Phys. Chem. Chem. Phys. 2, 2105-2112 (2000).
 All-electron ab-initio molecular dynamics.
 https://doi.org/10.1039/b001167n

 G. Lippert, J. Hutter, M. Parrinello.
 Theor. Chem. Acc. 103, 124-140 (1999).
 The Gaussian and augmented-plane-wave density functional method for ab initio 
 molecular dynamics simulations.
 https://doi.org/10.1007/s002140050523

 J. P. Perdew, K. Burke, M. Ernzerhof.
 Phys. Rev. Lett. 77, 3865-3868 (1996).
 Generalized gradient approximation made simple.
 https://doi.org/10.1103/PhysRevLett.77.3865


 -------------------------------------------------------------------------------
 -                                                                             -
 -                                T I M I N G                                  -
 -                                                                             -
 -------------------------------------------------------------------------------
 SUBROUTINE                       CALLS  ASD         SELF TIME        TOTAL TIME
                                MAXIMUM       AVERAGE  MAXIMUM  AVERAGE  MAXIMUM
 CP2K                                 1  1.0    0.036    0.063  215.884  215.885
 qs_energies                          1  2.0    0.001    0.001  214.679  214.926
 scf_env_do_scf                       1  3.0    0.000    0.000  203.982  203.986
 scf_env_do_scf_inner_loop           56  4.0    0.002    0.004  203.982  203.985
 qs_ks_build_kohn_sham_matrix        57  7.0    0.009    0.009  164.161  164.182
 qs_ks_update_qs_env                 56  5.0    0.000    0.000  162.467  162.489
 rebuild_ks_matrix                   56  6.0    0.000    0.000  162.460  162.481
 fft_wrap_pw1pw2                   1188  9.9    0.027    0.034   67.366   68.209
 fft_wrap_pw1pw2_250                846 11.1    2.901    3.202   65.127   65.764
 fft3d_ps                          1188 11.9   26.705   29.344   54.260   54.888
 pw_poisson_solve                    57  8.0    1.015    1.114   49.729   49.746
 qs_vxc_create                       57  8.0    0.001    0.001   40.063   40.065
 xc_vxc_pw_create                    56  9.0    0.702    0.791   40.062   40.064
 hfx_ks_matrix                       57  8.0    0.002    0.002   37.304   37.366
 integrate_four_center               57  9.0    1.242    2.637   37.301   37.362
 ps_wavelet_solve                    57  9.0   25.674   28.894   32.910   33.138
 mp_sync                            707  9.3   29.221   31.774   29.221   31.774
 xc_pw_derive                       336 11.0    0.004    0.005   29.116   29.909
 integrate_four_center_main          57 10.0    0.502   23.582    1.211   28.983
 integrate_four_center_bin         4624 11.0    0.709   28.854    0.709   28.854
 mp_alltoall_d54                     57 10.0    4.784   25.695    4.784   25.695
 mp_alltoall_z22v                  1188 13.9   21.138   23.702   21.138   23.702
 qs_rho_update_rho_low               57  5.0    0.001    0.001   21.627   21.628
 calculate_rho_elec                  57  6.0    0.557    0.594   21.529   21.529
 xc_pw_divergence                    56 10.0    0.002    0.003   19.625   20.260
 xc_rho_set_and_dset_create          56 10.0    0.507    0.673   19.351   19.999
 gspace_mixing                       55  5.0    0.537    0.573   19.286   19.286
 density_rs2pw                       57  7.0    0.004    0.004   15.241   15.981
 x_to_yz                            621 13.1    4.507    4.925   14.710   15.342
 sum_up_and_integrate                57  8.0    0.001    0.001   14.887   14.925
 yz_to_x                            567 12.8    1.891    2.293   12.825   14.875
 integrate_v_rspace                  57  9.0    0.001    0.002   14.722   14.832
 broyden_mixing                      55  6.0   14.227   14.451   14.442   14.509
 potential_pw2rs                     57 10.0    0.029    0.032   11.259   11.367
 prepare_gapw_den                    57  8.0    0.001    0.001   10.836   11.000
 mp2_main                             1  3.0    0.000    0.000    9.533    9.780
 put_rho0_on_grid                    57  9.0    0.560    0.600    8.271    8.435
 transfer_pw2rs                     286 10.6    0.004    0.006    8.243    8.380
 transfer_rs2pw                     286  8.4    0.007    0.010    7.646    8.355
 mp_alltoall_d11v                  1080  9.5    5.429    8.123    5.429    8.123
 mp_waitany                        7568 11.5    6.777    7.829    6.777    7.829
 mp2_gpw_main                         1  4.0    0.000    0.000    7.613    7.623
 grid_collocate_task_list            57  7.0    5.482    6.823    5.482    6.823
 transfer_rs2pw_250                 115 10.0    1.948    2.117    5.465    6.279
 rpa_ri_compute_en                    1  5.0    0.000    0.000    5.905    5.906
 rpa_num_int                          1  6.0    0.001    0.001    5.884    5.885
 transfer_pw2rs_250                 115 10.9    1.714    1.834    5.441    5.689
 compute_GW_self_energy             100  7.0    0.001    0.001    5.581    5.636
 compute_GW_self_energy_deep        100  8.0    4.644    4.695    5.494    5.550
 calc_screening_functions             1 10.0    4.816    5.103    5.137    5.426
 mp_sum_d                          3295  6.5    3.745    4.628    3.745    4.628
 xc_functional_eval                 168 10.9    0.001    0.001    4.154    4.608
 pbe_lda_eval                       168 11.9    4.154    4.607    4.154    4.607
 mp_alltoall_d45                     58 10.0    2.294    4.554    2.294    4.554
 pw_scatter_p                       621 12.1    4.447    4.524    4.447    4.524
 pw_gather_p                        567 11.8    3.726    4.331    3.726    4.331
 integrate_vhg0_rspace               57  8.0    0.149    0.164    3.812    3.827
 pw_derive                          507 11.3    3.276    3.481    3.276    3.481
 rs_gather_matrices                  57 10.0    0.006    0.020    3.255    3.475
 grid_integrate_task_list            57 10.0    0.206    3.430    0.206    3.430
 calculate_rho_atom                  57  9.0    0.473    2.335    0.473    2.335
 calculate_vxc_atom                  57  8.0    0.016    0.247    2.312    2.312
 mp_sum_dv                         6880 10.2    1.939    2.113    1.939    2.113
 cp2k_distribution_to_z_slices       57  9.0    1.061    1.116    1.933    2.092
 pw_copy                            850 10.6    1.946    2.054    1.946    2.054
 fft_wrap_pw1pw2_90                 114 10.5    0.082    0.096    1.784    2.025
 gaVxcgb_GC                          56  9.0    0.084    2.020    0.084    2.020
 mp_waitall_1                     17858 12.0    1.204    2.004    1.204    2.004
 pw_poisson_set                      58  8.9    0.002    0.002    1.813    1.830
 compute_vec_Sigma_x_minus_vxc_       1  4.0    0.000    0.000    1.707    1.707
 mp2_ri_gpw_compute_in                1  5.0    0.000    0.001    1.693    1.693
 mp2_ri_gpw_compute_in_loop           1  6.0    0.000    0.000    1.688    1.688
 rs_grid_zero                       287 11.1    1.600    1.660    1.600    1.660
 contract_B_L                         4  7.0    0.002    0.002    1.551    1.653
 transfer_pw2rs_90                   57 12.0    0.298    0.331    1.202    1.541
 dbt_total                            8  8.0    0.000    0.000    1.380    1.380
 pw_axpy                            565  9.3    1.270    1.349    1.270    1.349
 transfer_pw2rs_30                   57 12.0    0.777    0.855    1.190    1.305
 pw_copy_to_array                   567 11.8    1.146    1.249    1.146    1.249
 dbt_contract                         4  9.0    0.001    0.001    0.917    1.209
 pw_poisson_rebuild                  57  9.0    0.000    0.000    1.117    1.145
 ps_wavelet_create                    1 10.0    0.000    0.000    1.117    1.144
 RS_z_slice_distribution              1 11.0    0.992    1.040    1.117    1.144
 dbt_copy                            12 10.2    0.000    0.000    0.343    1.143
 dbt_reshape                          8 11.8    0.006    0.006    0.333    1.133
 dbt_communicate_buffer               8 12.8    0.001    0.001    0.324    1.124
 mp_waitall_2                        48 15.7    0.323    1.122    0.323    1.122
 transfer_rs2pw_90                   57  9.0    0.263    0.306    0.963    1.067
 qs_scf_new_mos                      56  5.0    0.001    0.001    1.022    1.028
 pw_integral_ab_c1d_c1d_gs           57  9.0    0.837    0.845    0.933    1.018
 parallel_gemm_fm                   333  8.6    0.000    0.001    0.950    0.957
 parallel_gemm_fm_gemm              333  9.6    0.001    0.001    0.950    0.957
 cp_fm_gemm                         333 10.6    0.949    0.956    0.949    0.956
 transfer_rs2pw_30                   57  9.0    0.448    0.472    0.923    0.951
 pw_copy_from_array                 621 12.1    0.759    0.934    0.759    0.934
 mp_sum_dm                          403  7.6    0.597    0.926    0.597    0.926
 mp_cart_create                     285 10.8    0.680    0.911    0.681    0.911
 dbt_pgrid_create_expert             80 10.7    0.000    0.000    0.666    0.897
 cp_fm_syevd                         62  7.0    0.000    0.001    0.800    0.802
 eigensolver_symm                    57  6.0    0.002    0.002    0.783    0.784
 cp_fm_redistribute_end              62  8.0    0.389    0.749    0.393    0.752
 cp_fm_syevd_base                    62  8.0    0.356    0.715    0.356    0.715
 mp_sendrecv_dv                    5358 10.0    0.670    0.709    0.670    0.709
 dbt_remap                            8 10.0    0.001    0.002    0.655    0.656
 dbt_nd_mp_comm                       8 11.0    0.000    0.000    0.510    0.640
 mp_irecv_dm3                      2064 11.5    0.327    0.625    0.327    0.625
 init_scf_run                         1  3.0    0.000    0.000    0.618    0.618
 scf_env_initial_rho_setup            1  4.0    0.000    0.000    0.596    0.596
 pw_zero                            338 10.3    0.544    0.592    0.544    0.592
 mp_isend_dv                       7692 12.0    0.352    0.574    0.352    0.574
 powell_optimize                 203010 11.0    0.504    0.544    0.504    0.544
 Vh_1c_gg_integrals                  57  8.0    0.016    0.301    0.363    0.483
 mp_isend_dm3                      2064 11.5    0.202    0.474    0.202    0.474
 mp_sum_l                           869  5.8    0.320    0.467    0.320    0.467
 qs_init_subsys                       1  2.0    0.004    0.004    0.460    0.460
 mp_isendrecv_dv                  10716 12.0    0.225    0.460    0.225    0.460
 integrate_four_center_load          57 10.0    0.000    0.001    0.299    0.440
 hfx_load_balance                     1 11.0    0.000    0.000    0.299    0.440
 qs_env_setup                         1  3.0    0.000    0.000    0.435    0.439
 qs_env_rebuild_pw_env                2  3.5    0.000    0.000    0.434    0.437
 pw_env_rebuild                       1  5.0    0.001    0.001    0.433    0.437
 hfx_load_balance_range               1 12.0    0.000    0.002    0.292    0.433
 qs_energies_init_hamiltonians        1  3.0    0.000    0.000    0.427    0.427
 transfer_pw2rs_10                   57 12.0    0.196    0.205    0.405    0.426
 pw_grid_setup                        4  6.0    0.000    0.000    0.421    0.425
 pw_grid_setup_internal               4  7.0    0.010    0.013    0.421    0.425
 mp_sum_i                            19  9.5    0.248    0.421    0.248    0.421
 build_core_hamiltonian_matrix        1  4.0    0.000    0.000    0.420    0.420
 mp2_main_alloc_hfx                   1  4.0    0.173    0.420    0.173    0.420
 restraint_control                    1  2.0    0.000    0.000    0.247    0.420
 overlap_condnum                      1  5.0    0.000    0.000    0.417    0.418
 create_qs_kind_set                   1  2.0    0.000    0.000    0.398    0.399
 read_qs_kind                         1  3.0    0.219    0.223    0.398    0.399
 arnoldi_conjugate_gradient           5  6.0    0.009    0.011    0.365    0.365
 fft_wrap_pw1pw2_30                 114 10.5    0.014    0.015    0.343    0.358
 pw_grid_sort                         4  8.0    0.223    0.226    0.318    0.322
 mp_max_i                           534  2.8    0.179    0.306    0.179    0.306
 scale_and_distribute               114 10.0    0.283    0.304    0.283    0.304
 calc_pair_dist_radii                 1 10.0    0.103    0.106    0.286    0.296
 transfer_rs2pw_10                   57  9.0    0.093    0.101    0.288    0.294
 mp2_eri_3c_integrate                 1  7.0    0.001    0.002    0.111    0.254
 integrate_set_3c                   900  8.0    0.099    0.231    0.110    0.253
 calculate_rho0_atom                 57  9.0    0.241    0.250    0.241    0.250
 integrate_four_center_getP          57 10.0    0.007    0.008    0.245    0.249
 integrate_four_center_dist_KS       57 10.0    0.008    0.009    0.236    0.238
 dbcsr_sym_matrix_vector_mult      1368  7.0    0.021    0.023    0.157    0.233
 parser_read_line                 46461  4.0    0.016    0.017    0.179    0.181
 pw_scale                           225  9.5    0.148    0.180    0.148    0.180
 rpa_num_int_RPA_matrix_operati     100  7.0    0.001    0.002    0.173    0.174
 calculate_dm_sparse                 56  6.0    0.000    0.000    0.159    0.167
 cp_dbcsr_plus_fm_fm_t               56  7.0    0.001    0.001    0.158    0.165
 parser_read_line_low                51  5.0    0.014    0.071    0.163    0.165
 broadcast_input_information         51  6.0    0.037    0.042    0.149    0.156
 mixing_init                          1  5.0    0.146    0.149    0.150    0.150
 dbcsr_multiply_generic              93  8.1    0.004    0.004    0.124    0.134
 dbcsr_add_d                       2096  7.1    0.002    0.002    0.017    0.122
 dbcsr_add_anytype                 2096  8.1    0.002    0.015    0.015    0.120
 scf_post_calculation_gpw             1  3.0    0.000    0.000    0.117    0.118
 write_available_results              1  4.0    0.000    0.000    0.117    0.117
 write_mo_free_results                1  5.0    0.012    0.014    0.117    0.117
 calc_mat_Q                         100  8.0    0.000    0.000    0.111    0.116
 copy_dbcsr_to_fm                    83  6.5    0.001    0.002    0.111    0.114
 dbcsr_complete_redistribute        199  8.4    0.010    0.015    0.107    0.110
 contract_S_to_Q                    100  9.0    0.000    0.000    0.102    0.106
 fft_wrap_pw1pw2_10                 114 10.5    0.003    0.003    0.085    0.099
 calculate_rho_atom_coeff            57  6.0    0.009    0.033    0.098    0.098
 sort_shells                          4  9.0    0.095    0.096    0.095    0.096
 dbcsr_finalize                    3172 10.6    0.006    0.029    0.021    0.086
 update_ks_atom                      57  8.0    0.007    0.027    0.056    0.082
 mp_irecv_dv                       7652 12.0    0.042    0.081    0.042    0.081
 xc_pw_smooth                        56 10.0    0.000    0.000    0.059    0.081
 cp_fm_cholesky_invert              101  8.0    0.076    0.079    0.076    0.079
 dbcsr_rep_row_to_rep_col_vec      1368  8.0    0.007    0.009    0.025    0.079
 mp_bcast_i_src                     204  7.0    0.059    0.076    0.059    0.076
 mp_bcast_dm                        228  9.0    0.050    0.075    0.050    0.075
 dbcsr_col_vec_to_rep_row          1368  8.0    0.009    0.012    0.034    0.074
 dbcsr_desymmetrize_deep             85  7.5    0.002    0.004    0.067    0.069
 start_bse_calculation                1  7.0    0.000    0.000    0.069    0.069
 dbt_tas_multiply                     8 11.5    0.000    0.000    0.066    0.066
 dbt_tas_total                        8 12.5    0.001    0.002    0.066    0.066
 cp_fm_to_fm_submat_general         112 10.1    0.057    0.064    0.057    0.064
 make_m2s                           186  9.1    0.003    0.003    0.059    0.062
 copy_fm_to_dbcsr                   116  8.1    0.000    0.001    0.059    0.061
 mp_bcast_am_src                     51  7.0    0.045    0.052    0.051    0.060
 cp_fm_redistribute_start            62  8.0    0.040    0.043    0.050    0.056
 compute_Erpa_by_freq_int           100  8.0    0.001    0.001    0.055    0.055
 cp_fm_cholesky_decompose           102  9.0    0.054    0.055    0.054    0.055
 mp_bcast_dv                       1430  9.0    0.015    0.054    0.015    0.054
 pw_grid_assign                       4  8.0    0.050    0.052    0.051    0.053
 calculate_hirshfeld_normalizat       1  6.0    0.000    0.000    0.050    0.051
 multiply_cannon                     93  9.1    0.007    0.007    0.042    0.051
 hirshfeld_integration                1  6.0    0.000    0.000    0.049    0.050
 offload_free_buffer                 65  8.3    0.030    0.044    0.030    0.044
 cp_fm_power                          2  7.5    0.000    0.001    0.042    0.042
 dbcsr_merge_all                   2605 11.4    0.008    0.034    0.011    0.042
 diagonalize_C                        1  8.0    0.000    0.000    0.040    0.040
 mp_alltoall_i22                    284  9.2    0.036    0.040    0.036    0.040
 dbcsr_iterator_start             17930  8.9    0.022    0.033    0.025    0.038
 dbcsr_copy                        5974  7.6    0.020    0.023    0.034    0.037
 dbcsr_sym_matrix_vector_mult_l    1368  8.0    0.006    0.033    0.011    0.037
 hybrid_alltoall_any                271 10.9    0.004    0.005    0.031    0.036
 vxc_of_r_new                       112  9.0    0.000    0.005    0.001    0.036
 mp_alltoall_i11v                   682  9.3    0.034    0.036    0.034    0.036
 make_images                        186 10.1    0.006    0.007    0.032    0.034
 multiply_cannon_loop                93 10.1    0.005    0.005    0.026    0.034
 rs_scatter_matrices                 57  7.0    0.001    0.002    0.030    0.033
 dbt_tas_estimate_result_nze          4 12.0    0.001    0.001    0.033    0.033
 cp_fm_symm                          57  7.0    0.026    0.029    0.026    0.029
 mp_comm_split_direct                48 14.5    0.017    0.028    0.017    0.028
 postprocess_bse                      1  9.0    0.000    0.000    0.026    0.026
 dbcsr_iterator_stop              17930  8.9    0.016    0.022    0.019    0.026
 mp_maxloc_dv                      1519  1.0    0.023    0.025    0.023    0.025
 pw_grid_remap                        4  8.0    0.008    0.008    0.021    0.025
 dbcsr_create_new                  7766  9.0    0.017    0.018    0.022    0.023
 mp2_main_free_hfx                    1  4.0    0.010    0.023    0.010    0.023
 abc_contract                       900  9.0    0.010    0.022    0.010    0.022
 -------------------------------------------------------------------------------

 The number of warnings for this run is : 2
 
 -------------------------------------------------------------------------------
  **** **** ******  **  PROGRAM ENDED AT                 2025-03-18 23:34:12.029
 ***** ** ***  *** **   PROGRAM RAN ON                              i02r06c01s06
 **    ****   ******    PROGRAM RAN BY                                   di38fab
 ***** **    ** ** **   PROGRAM PROCESS ID                               1852941
  **** **  *******  **  PROGRAM STOPPED IN /hppfs/scratch/04/di38fab/05_MOL/W4-1
                                           1+ALK/h2/aug-cc-pV5Z/GW+BSE
