 DBCSR| CPU Multiplication driver                                           BLAS (U)
 DBCSR| Multrec recursion limit                                              512 (U)
 DBCSR| Multiplication stack size                                           1000 (D)
 DBCSR| Maximum elements for images                                    UNLIMITED (U)
 DBCSR| Multiplicative factor virtual images                                   1 (U)
 DBCSR| Use multiplication densification                                       T (D)
 DBCSR| Multiplication size stacks                                             3 (U)
 DBCSR| Use memory pool for CPU allocation                                     F (U)
 DBCSR| Number of 3D layers                                               SINGLE (U)
 DBCSR| Use MPI memory allocation                                              F (U)
 DBCSR| Use RMA algorithm                                                      F (U)
 DBCSR| Use Communication thread                                               T (U)
 DBCSR| Communication thread load                                             75 (D)
 DBCSR| MPI: My process id                                                     0
 DBCSR| MPI: Number of processes                                              48
 DBCSR| OMP: Current number of threads                                         4
 DBCSR| OMP: Max number of threads                                             4
 DBCSR| Split modifier for TAS multiplication algorithm                  1.0E+00 (U)


  **** **** ******  **  PROGRAM STARTED AT               2025-03-18 23:30:36.137
 ***** ** ***  *** **   PROGRAM STARTED ON                          i02r04c06s12
 **    ****   ******    PROGRAM STARTED BY                               di38fab
 ***** **    ** ** **   PROGRAM PROCESS ID                               2046605
  **** **  *******  **  PROGRAM STARTED IN /hppfs/scratch/04/di38fab/05_MOL/W4-1
                                           1+ALK/h2/aug-cc-pVTZ/GW+BSE

 CP2K| version string:                 CP2K version 2025.1 (Development Version)
 CP2K| source code revision number:                                  git:d2e611a
 CP2K| cp2kflags: omp libint fftw3 libxc parallel scalapack max_contr=4         
 CP2K| is freely available from                            https://www.cp2k.org/
 CP2K| Program compiled at                       Thu 06 Mar 2025 05:09:20 PM CET
 CP2K| Program compiled on                                               login02
 CP2K| Program compiled for                                        Supermuc-foss
 CP2K| Data directory path                  /hppfs/work/pn36zo/di38fab/cp2k/data
 CP2K| Input file name                                                    GW.inp

 GLOBAL| Force Environment number                                              1
 GLOBAL| Basis set file name            /hppfs/scratch/04/di38fab/04_TMD/BASIS_A
 GLOBAL| Potential file name            /hppfs/work/pn36zo/di38fab/cp2k/data/ALL
 GLOBAL| MM Potential file name                                     MM_POTENTIAL
 GLOBAL| Coordinate file name                                      __STD_INPUT__
 GLOBAL| Method name                                                        CP2K
 GLOBAL| Project name                                                       MoS2
 GLOBAL| Run type                                                         ENERGY
 GLOBAL| FFT library                                                       FFTW3
 GLOBAL| Diagonalization library                                       ScaLAPACK
 GLOBAL| DGEMM library                                                      BLAS
 GLOBAL| Orthonormality check for eigenvectors                          DISABLED
 GLOBAL| Matrix multiplication library                                 ScaLAPACK
 GLOBAL| All-to-all communication in single precision                          F
 GLOBAL| FFTs using library dependent lengths                                  F
 GLOBAL| Grid backend                                                       AUTO
 GLOBAL| Global print level                                               MEDIUM
 GLOBAL| MPI I/O enabled                                                       T
 GLOBAL| Total number of message passing processes                            48
 GLOBAL| Number of threads for this process                                    4
 GLOBAL| This output is from process                                           0
 GLOBAL| OpenMP stack size per thread (OMP_STACKSIZE)                    default
 GLOBAL| CPU model name             Intel(R) Xeon(R) Platinum 8174 CPU @ 3.10GHz

 MEMORY| system memory details [Kb]
 MEMORY|                        rank 0           min           max       average
 MEMORY| MemTotal             98436664      98436660      98436712      98436674
 MEMORY| MemFree              83814888      83667924      83952712      83820690
 MEMORY| Buffers                     0             0             0             0
 MEMORY| Cached                2434564       2405036       2434564       2418419
 MEMORY| Slab                  1258624       1222508       1258624       1235524
 MEMORY| SReclaimable           275364        266552        276184        271864
 MEMORY| MemLikelyFree        86524816      86357296      86640152      86510973


 *** Fundamental physical constants (SI units) ***

 *** Literature: B. J. Mohr and B. N. Taylor,
 ***             CODATA recommended values of the fundamental physical
 ***             constants: 2006, Web Version 5.1
 ***             http://physics.nist.gov/constants

 Speed of light in vacuum [m/s]                             2.99792458000000E+08
 Magnetic constant or permeability of vacuum [N/A**2]       1.25663706143592E-06
 Electric constant or permittivity of vacuum [F/m]          8.85418781762039E-12
 Planck constant (h) [J*s]                                  6.62606896000000E-34
 Planck constant (h-bar) [J*s]                              1.05457162825177E-34
 Elementary charge [C]                                      1.60217648700000E-19
 Electron mass [kg]                                         9.10938215000000E-31
 Electron g factor [ ]                                     -2.00231930436220E+00
 Proton mass [kg]                                           1.67262163700000E-27
 Fine-structure constant                                    7.29735253760000E-03
 Rydberg constant [1/m]                                     1.09737315685270E+07
 Avogadro constant [1/mol]                                  6.02214179000000E+23
 Boltzmann constant [J/K]                                   1.38065040000000E-23
 Atomic mass unit [kg]                                      1.66053878200000E-27
 Bohr radius [m]                                            5.29177208590000E-11

 *** Conversion factors ***

 [u] -> [a.u.]                                              1.82288848426455E+03
 [Angstrom] -> [Bohr] = [a.u.]                              1.88972613288564E+00
 [a.u.] = [Bohr] -> [Angstrom]                              5.29177208590000E-01
 [a.u.] -> [s]                                              2.41888432650478E-17
 [a.u.] -> [fs]                                             2.41888432650478E-02
 [a.u.] -> [J]                                              4.35974393937059E-18
 [a.u.] -> [N]                                              8.23872205491840E-08
 [a.u.] -> [K]                                              3.15774647902944E+05
 [a.u.] -> [kJ/mol]                                         2.62549961709828E+03
 [a.u.] -> [kcal/mol]                                       6.27509468713739E+02
 [a.u.] -> [Pa]                                             2.94210107994716E+13
 [a.u.] -> [bar]                                            2.94210107994716E+08
 [a.u.] -> [atm]                                            2.90362800883016E+08
 [a.u.] -> [eV]                                             2.72113838565563E+01
 [a.u.] -> [Hz]                                             6.57968392072181E+15
 [a.u.] -> [1/cm] (wave numbers)                            2.19474631370540E+05
 [a.u./Bohr**2] -> [1/cm]                                   5.14048714338585E+03
 

 CELL_TOP| Volume [angstrom^3]:                                     27000.000000
 CELL_TOP| Vector a [angstrom    30.000     0.000     0.000   |a| =    30.000000
 CELL_TOP| Vector b [angstrom     0.000    30.000     0.000   |b| =    30.000000
 CELL_TOP| Vector c [angstrom     0.000     0.000    30.000   |c| =    30.000000
 CELL_TOP| Angle (b,c), alpha [degree]:                                90.000000
 CELL_TOP| Angle (a,c), beta  [degree]:                                90.000000
 CELL_TOP| Angle (a,b), gamma [degree]:                                90.000000
 CELL_TOP| Numerically orthorhombic:                                         YES
 CELL_TOP| Periodicity                                                      NONE

 GENERATE|  Preliminary Number of Bonds generated:                             0
 GENERATE|  Achieved consistency in connectivity generation.

 CELL| Volume [angstrom^3]:                                         27000.000000
 CELL| Vector a [angstrom]:      30.000     0.000     0.000   |a| =    30.000000
 CELL| Vector b [angstrom]:       0.000    30.000     0.000   |b| =    30.000000
 CELL| Vector c [angstrom]:       0.000     0.000    30.000   |c| =    30.000000
 CELL| Angle (b,c), alpha [degree]:                                    90.000000
 CELL| Angle (a,c), beta  [degree]:                                    90.000000
 CELL| Angle (a,b), gamma [degree]:                                    90.000000
 CELL| Numerically orthorhombic:                                             YES
 CELL| Periodicity                                                          NONE

 CELL_REF| Volume [angstrom^3]:                                     27000.000000
 CELL_REF| Vector a [angstrom    30.000     0.000     0.000   |a| =    30.000000
 CELL_REF| Vector b [angstrom     0.000    30.000     0.000   |b| =    30.000000
 CELL_REF| Vector c [angstrom     0.000     0.000    30.000   |c| =    30.000000
 CELL_REF| Angle (b,c), alpha [degree]:                                90.000000
 CELL_REF| Angle (a,c), beta  [degree]:                                90.000000
 CELL_REF| Angle (a,b), gamma [degree]:                                90.000000
 CELL_REF| Numerically orthorhombic:                                         YES
 CELL_REF| Periodicity                                                      NONE

 *******************************************************************************
 *******************************************************************************
 **                                                                           **
 **     #####                         ##              ##                      **
 **    ##   ##            ##          ##              ##                      **
 **   ##     ##                       ##            ######                    **
 **   ##     ##  ##   ##  ##   #####  ##  ##   ####   ##    #####    #####    **
 **   ##     ##  ##   ##  ##  ##      ## ##   ##      ##   ##   ##  ##   ##   **
 **   ##  ## ##  ##   ##  ##  ##      ####     ###    ##   ######   ######    **
 **    ##  ###   ##   ##  ##  ##      ## ##      ##   ##   ##       ##        **
 **     #######   #####   ##   #####  ##  ##  ####    ##    #####   ##        **
 **           ##                                                    ##        **
 **                                                                           **
 **                                                ... make the atoms dance   **
 **                                                                           **
 **            Copyright (C) by CP2K developers group (2000-2025)             **
 **                      J. Chem. Phys. 152, 194103 (2020)                    **
 **                                                                           **
 *******************************************************************************

 DFT| Spin restricted Kohn-Sham (RKS) calculation                            RKS
 DFT| Multiplicity                                                             1
 DFT| Number of spin states                                                    1
 DFT| Charge                                                                   0
 DFT| Self-interaction correction (SIC)                                       NO
 DFT| Cutoffs: density                                              1.000000E-10
 DFT|          gradient                                             1.000000E-10
 DFT|          tau                                                  1.000000E-10
 DFT|          cutoff_smoothing_range                               0.000000E+00
 DFT| XC density smoothing                                                  NONE
 DFT| XC derivatives                                                          PW

 FUNCTIONAL| PBE:
 FUNCTIONAL| J.P.Perdew, K.Burke, M.Ernzerhof, Phys. Rev. Letter, vol. 77, n 18,
 FUNCTIONAL|  pp. 3865-3868, (1996)sx=0.750sc=1.000{spin unpolarized}           


 QS| Method:                                                                GAPW
 QS| Density plane wave grid type                        NON-SPHERICAL FULLSPACE
 QS| Number of grid levels:                                                    4
 QS| Density cutoff [a.u.]:                                                250.0
 QS| Multi grid cutoff [a.u.]: 1) grid level                               250.0
 QS|                           2) grid level                                83.3
 QS|                           3) grid level                                27.8
 QS|                           4) grid level                                 9.3
 QS| Grid level progression factor:                                          3.0
 QS| Relative density cutoff [a.u.]:                                        50.0
 QS| Interaction thresholds: eps_pgf_orb:                                1.0E-12
 QS|                         eps_filter_matrix:                          0.0E+00
 QS|                         eps_core_charge:                            1.0E-14
 QS|                         eps_rho_gspace:                             1.0E-12
 QS|                         eps_rho_rspace:                             1.0E-12
 QS|                         eps_gvg_rspace:                             1.0E-06
 QS|                         eps_ppl:                                    1.0E-02
 QS|                         eps_ppnl:                                   1.0E-08
 QS| GAPW|      One center basis from orbital basis primitives
 QS| GAPW|                   eps_fit:                                    1.0E-04
 QS| GAPW|                   eps_iso:                                    1.0E-12
 QS| GAPW|                   eps_svd:                                    1.0E-08
 QS| GAPW|                   eps_cpc:                                    1.0E-12
 QS| GAPW|   atom-r-grid: quadrature:                                     GC_LOG
 QS| GAPW|      atom-s-grid:  max l :                                          4
 QS| GAPW|      max_l_rho0 :                                                   2


 ATOMIC KIND INFORMATION

  1. Atomic kind: H                                     Number of atoms:       2

     Orbital Basis Set                                               aug-cc-pVTZ

       Number of orbital shell sets:                                           6
       Number of orbital shells:                                               9
       Number of primitive Cartesian functions:                               11
       Number of Cartesian basis functions:                                   25
       Number of spherical basis functions:                                   23
       Norm type:                                                              2

       Normalised Cartesian orbitals:

                        Set   Shell   Orbital            Exponent    Coefficient

                          1       1    1s                0.025260       0.045158

                          2       1    1px               0.102000       0.082166
                          2       1    1py               0.102000       0.082166
                          2       1    1pz               0.102000       0.082166

                          3       1    1s               33.870000       0.000000
                                                         5.095000       0.000000
                                                         1.159000       0.000000
                                                         0.325800       0.307343
                                                         0.102700       0.000000

                          3       2    2s               33.870000       0.060718
                                                         5.095000       0.109507
                                                         1.159000       0.161468
                                                         0.325800       0.154871
                                                         0.102700       0.049575

                          3       3    3s               33.870000       0.000000
                                                         5.095000       0.000000
                                                         1.159000       0.000000
                                                         0.325800       0.000000
                                                         0.102700       0.129297

                          4       1    1dx2              0.247000       0.142439
                          4       1    1dxy              0.247000       0.246712
                          4       1    1dxz              0.247000       0.246712
                          4       1    1dy2              0.247000       0.142439
                          4       1    1dyz              0.247000       0.246712
                          4       1    1dz2              0.247000       0.142439

                          5       1    1px               1.407000       2.184277
                                                         0.388000       0.000000
                          5       1    1py               1.407000       2.184277
                                                         0.388000       0.000000
                          5       1    1pz               1.407000       2.184277
                                                         0.388000       0.000000

                          5       2    2px               1.407000       0.000000
                                                         0.388000       0.436495
                          5       2    2py               1.407000       0.000000
                                                         0.388000       0.436495
                          5       2    2pz               1.407000       0.000000
                                                         0.388000       0.436495

                          6       1    1dx2              1.057000       1.813597
                          6       1    1dxy              1.057000       3.141241
                          6       1    1dxz              1.057000       3.141241
                          6       1    1dy2              1.057000       1.813597
                          6       1    1dyz              1.057000       3.141241
                          6       1    1dz2              1.057000       1.813597

     RI Auxiliary Basis Set                                    aug-cc-pVTZ-OPTRI

       Number of orbital shell sets:                                           9
       Number of orbital shells:                                               9
       Number of primitive Cartesian functions:                                9
       Number of Cartesian basis functions:                                   34
       Number of spherical basis functions:                                   29
       Norm type:                                                              2

       Normalised Cartesian orbitals:

                        Set   Shell   Orbital            Exponent    Coefficient

                          1       1    1s                0.207674       0.219254

                          2       1    1s                0.488825       0.416654

                          3       1    1dx2              0.617513       0.708011
                          3       1    1dxy              0.617513       1.226311
                          3       1    1dxz              0.617513       1.226311
                          3       1    1dy2              0.617513       0.708011
                          3       1    1dyz              0.617513       1.226311
                          3       1    1dz2              0.617513       0.708011

                          4       1    1px               0.702626       0.916949
                          4       1    1py               0.702626       0.916949
                          4       1    1pz               0.702626       0.916949

                          5       1    1s                1.747055       1.083029

                          6       1    1dx2              1.784914       4.536696
                          6       1    1dxy              1.784914       7.857789
                          6       1    1dxz              1.784914       7.857789
                          6       1    1dy2              1.784914       4.536696
                          6       1    1dyz              1.784914       7.857789
                          6       1    1dz2              1.784914       4.536696

                          7       1    1fx3              1.918725       6.378714
                          7       1    1fx2y             1.918725      14.263237
                          7       1    1fx2z             1.918725      14.263237
                          7       1    1fxy2             1.918725      14.263237
                          7       1    1fxyz             1.918725      24.704651
                          7       1    1fxz2             1.918725      14.263237
                          7       1    1fy3              1.918725       6.378714
                          7       1    1fy2z             1.918725      14.263237
                          7       1    1fyz2             1.918725      14.263237
                          7       1    1fz3              1.918725       6.378714

                          8       1    1px               2.114191       3.633878
                          8       1    1py               2.114191       3.633878
                          8       1    1pz               2.114191       3.633878

                          9       1    1px               4.837096      10.225180
                          9       1    1py               4.837096      10.225180
                          9       1    1pz               4.837096      10.225180

       Atomic covalent radius [Angstrom]:                                  0.320

       Atomic van der Waals radius [Angstrom]:                             1.090

     The atoms of this atomic kind are PAW atoms (GAPW):
       Hard Gaussian function radius:                                      1.200
       Rho0 radius:                                                        1.200
       Maximum GTO radius used for PAW projector construction:            24.566

     GAPW Soft Basis Set                                        aug-cc-pVTZ_soft

       Number of orbital shell sets:                                           6
       Number of orbital shells:                                               9
       Number of primitive Cartesian functions:                               10
       Number of Cartesian basis functions:                                   25
       Number of spherical basis functions:                                   23
       Norm type:                                                              2

       Normalised Cartesian orbitals:

                        Set   Shell   Orbital            Exponent    Coefficient

                          1       1    1s                0.025260       0.045158

                          2       1    1px               0.102000       0.082166
                          2       1    1py               0.102000       0.082166
                          2       1    1pz               0.102000       0.082166

                          3       1    1s                5.095000       0.000000
                                                         1.159000       0.000000
                                                         0.325800       0.307343
                                                         0.102700       0.000000

                          3       2    2s                5.095000       0.109507
                                                         1.159000       0.161468
                                                         0.325800       0.154871
                                                         0.102700       0.049575

                          3       3    3s                5.095000       0.000000
                                                         1.159000       0.000000
                                                         0.325800       0.000000
                                                         0.102700       0.129297

                          4       1    1dx2              0.247000       0.142439
                          4       1    1dxy              0.247000       0.246712
                          4       1    1dxz              0.247000       0.246712
                          4       1    1dy2              0.247000       0.142439
                          4       1    1dyz              0.247000       0.246712
                          4       1    1dz2              0.247000       0.142439

                          5       1    1px               1.407000       2.184277
                                                         0.388000       0.000000
                          5       1    1py               1.407000       2.184277
                                                         0.388000       0.000000
                          5       1    1pz               1.407000       2.184277
                                                         0.388000       0.000000

                          5       2    2px               1.407000       0.000000
                                                         0.388000       0.436495
                          5       2    2py               1.407000       0.000000
                                                         0.388000       0.436495
                          5       2    2pz               1.407000       0.000000
                                                         0.388000       0.436495

                          6       1    1dx2              1.057000       1.813597
                          6       1    1dxy              1.057000       3.141241
                          6       1    1dxz              1.057000       3.141241
                          6       1    1dy2              1.057000       1.813597
                          6       1    1dyz              1.057000       3.141241
                          6       1    1dz2              1.057000       1.813597

     AE Potential information for                                            ALL

       Description:                                       All-electron potential
                                          Krack, Parrinello, PCCP 2, 2105 (2000)

       Gaussian exponent of the core charge distribution:              12.500000
       Electronic configuration (s p d ...):                           1   0   0


 MOLECULE KIND INFORMATION


 All atoms are their own molecule, skipping detailed information


 TOTAL NUMBERS AND MAXIMUM NUMBERS

  Total number of            - Atomic kinds:                                   1
                             - Atoms:                                          2
                             - Shell sets:                                    12
                             - Shells:                                        18
                             - Primitive Cartesian functions:                 22
                             - Cartesian basis functions:                     50
                             - Spherical basis functions:                     46

  Maximum angular momentum of the orbital basis functions:                     2


 MODULE QUICKSTEP: ATOMIC COORDINATES IN ANGSTROM

   Atom Kind Element         X             Y             Z       Z(eff)     Mass
      1    1 H     1     15.370946     15.000000     15.000000   1.0000   1.0079
      2    1 H     1     14.629054     15.000000     15.000000   1.0000   1.0079



 SCF PARAMETERS         Density guess:                                    ATOMIC
                        --------------------------------------------------------
                        max_scf:                                             500
                        max_scf_history:                                       0
                        max_diis:                                              4
                        --------------------------------------------------------
                        eps_scf:                                        1.00E-06
                        eps_scf_history:                                0.00E+00
                        eps_diis:                                       1.00E-01
                        eps_eigval:                                     1.00E-05
                        --------------------------------------------------------
                        level_shift [a.u.]:                             0.000000
                        added MOs                                        45    0
                        --------------------------------------------------------
                        Mixing method:                            BROYDEN_MIXING
                                                charge density mixing in g-space
                        --------------------------------------------------------
                        No outer SCF

 PW_GRID| Information for grid number                                          1
 PW_GRID| Grid distributed over                                    48 processors
 PW_GRID| Real space group dimensions                                    48    1
 PW_GRID| the grid is blocked:                                                NO
 PW_GRID| Cutoff [a.u.]                                                    250.0
 PW_GRID| spherical cutoff:                                                   NO
 PW_GRID|   Bounds   1           -202     202                Points:         405
 PW_GRID|   Bounds   2           -202     202                Points:         405
 PW_GRID|   Bounds   3           -202     202                Points:         405
 PW_GRID| Volume element (a.u.^3)  0.2743E-02     Volume (a.u.^3)    182205.0337
 PW_GRID| Grid span                                                    FULLSPACE
 PW_GRID|   Distribution                         Average         Max         Min
 PW_GRID|   G-Vectors                          1383960.9     1384290     1383885
 PW_GRID|   G-Rays                                3417.2        3418        3417
 PW_GRID|   Real Space Points                  1383960.9     1476225     1312200

 PW_GRID| Information for grid number                                          2
 PW_GRID| Number of the reference grid                                         1
 PW_GRID| Grid distributed over                                    48 processors
 PW_GRID| Real space group dimensions                                    48    1
 PW_GRID| the grid is blocked:                                                NO
 PW_GRID| Cutoff [a.u.]                                                     83.3
 PW_GRID| spherical cutoff:                                                   NO
 PW_GRID|   Bounds   1           -120     119                Points:         240
 PW_GRID|   Bounds   2           -120     119                Points:         240
 PW_GRID|   Bounds   3           -120     119                Points:         240
 PW_GRID| Volume element (a.u.^3)  0.1318E-01     Volume (a.u.^3)    182205.0337
 PW_GRID| Grid span                                                    FULLSPACE
 PW_GRID|   Distribution                         Average         Max         Min
 PW_GRID|   G-Vectors                           288000.0      288720      287520
 PW_GRID|   G-Rays                                1200.0        1203        1198
 PW_GRID|   Real Space Points                   288000.0      288000      288000

 PW_GRID| Information for grid number                                          3
 PW_GRID| Number of the reference grid                                         1
 PW_GRID| Grid distributed over                                    48 processors
 PW_GRID| Real space group dimensions                                    48    1
 PW_GRID| the grid is blocked:                                                NO
 PW_GRID| Cutoff [a.u.]                                                     27.8
 PW_GRID| spherical cutoff:                                                   NO
 PW_GRID|   Bounds   1            -67      67                Points:         135
 PW_GRID|   Bounds   2            -67      67                Points:         135
 PW_GRID|   Bounds   3            -67      67                Points:         135
 PW_GRID| Volume element (a.u.^3)  0.7406E-01     Volume (a.u.^3)    182205.0337
 PW_GRID| Grid span                                                    FULLSPACE
 PW_GRID|   Distribution                         Average         Max         Min
 PW_GRID|   G-Vectors                            51257.8       51570       51030
 PW_GRID|   G-Rays                                 379.7         382         378
 PW_GRID|   Real Space Points                    51257.8       54675       36450

 PW_GRID| Information for grid number                                          4
 PW_GRID| Number of the reference grid                                         1
 PW_GRID| Grid distributed over                                    48 processors
 PW_GRID| Real space group dimensions                                    48    1
 PW_GRID| the grid is blocked:                                                NO
 PW_GRID| Cutoff [a.u.]                                                      9.3
 PW_GRID| spherical cutoff:                                                   NO
 PW_GRID|   Bounds   1            -40      39                Points:          80
 PW_GRID|   Bounds   2            -40      39                Points:          80
 PW_GRID|   Bounds   3            -40      39                Points:          80
 PW_GRID| Volume element (a.u.^3)  0.3559         Volume (a.u.^3)    182205.0337
 PW_GRID| Grid span                                                    FULLSPACE
 PW_GRID|   Distribution                         Average         Max         Min
 PW_GRID|   G-Vectors                            10666.7       10800       10560
 PW_GRID|   G-Rays                                 133.3         135         132
 PW_GRID|   Real Space Points                    10666.7       12800        6400

 POISSON| Solver                                                         WAVELET
 POISSON| Wavelet| Scaling function                                           40
 POISSON| Periodicity                                                       NONE

 RS_GRID| Information for grid number                                          1
 RS_GRID|   Bounds   1           -202     202                Points:         405
 RS_GRID|   Bounds   2           -202     202                Points:         405
 RS_GRID|   Bounds   3           -202     202                Points:         405
 RS_GRID| Real space distribution over                                  3 groups
 RS_GRID| Real space distribution along direction                              1
 RS_GRID| Border size                                                         32
 RS_GRID| Real space distribution over                                  4 groups
 RS_GRID| Real space distribution along direction                              2
 RS_GRID| Border size                                                         32
 RS_GRID| Real space distribution over                                  4 groups
 RS_GRID| Real space distribution along direction                              3
 RS_GRID| Border size                                                         32
 RS_GRID|   Distribution                         Average         Max         Min
 RS_GRID|   Planes                                 199.0         199         199
 RS_GRID|   Distribution                         Average         Max         Min
 RS_GRID|   Planes                                 165.2         166         165
 RS_GRID|   Distribution                         Average         Max         Min
 RS_GRID|   Planes                                 165.2         166         165

 RS_GRID| Information for grid number                                          2
 RS_GRID|   Bounds   1           -120     119                Points:         240
 RS_GRID|   Bounds   2           -120     119                Points:         240
 RS_GRID|   Bounds   3           -120     119                Points:         240
 RS_GRID| Real space distribution over                                  3 groups
 RS_GRID| Real space distribution along direction                              1
 RS_GRID| Border size                                                         35
 RS_GRID| Real space distribution over                                  4 groups
 RS_GRID| Real space distribution along direction                              2
 RS_GRID| Border size                                                         35
 RS_GRID| Real space distribution over                                  4 groups
 RS_GRID| Real space distribution along direction                              3
 RS_GRID| Border size                                                         35
 RS_GRID|   Distribution                         Average         Max         Min
 RS_GRID|   Planes                                 150.0         150         150
 RS_GRID|   Distribution                         Average         Max         Min
 RS_GRID|   Planes                                 130.0         130         130
 RS_GRID|   Distribution                         Average         Max         Min
 RS_GRID|   Planes                                 130.0         130         130

 RS_GRID| Information for grid number                                          3
 RS_GRID|   Bounds   1            -67      67                Points:         135
 RS_GRID|   Bounds   2            -67      67                Points:         135
 RS_GRID|   Bounds   3            -67      67                Points:         135
 RS_GRID| Real space fully replicated
 RS_GRID| Group size                                                           1

 RS_GRID| Information for grid number                                          4
 RS_GRID|   Bounds   1            -40      39                Points:          80
 RS_GRID|   Bounds   2            -40      39                Points:          80
 RS_GRID|   Bounds   3            -40      39                Points:          80
 RS_GRID| Real space fully replicated
 RS_GRID| Group size                                                           1

  HFX_INFO| Replica ID:                                                        1
  HFX_INFO| FRACTION:                                               0.2500000000
  HFX_INFO| Interaction Potential:                                       COULOMB
  HFX_INFO| EPS_SCHWARZ:                                                 1.0E-10
  HFX_INFO| EPS_SCHWARZ_FORCES                                           1.0E-08
  HFX_INFO| EPS_STORAGE_SCALING:                                         1.0E+00
  HFX_INFO| NBINS:                                                            64
  HFX_INFO| BLOCK_SIZE:                                                        1
  HFX_INFO| Number of periodic shells considered:                           NONE
  HFX_INFO| Number of periodic cells considered:                            NONE

 
 RI-RPA| using GPW style
 

 OVERLAP MATRIX CONDITION NUMBER
 1-Norm Condition Number (Estimate)
   CN : |A|*|A^-1|:  7.829E+000 *  2.465E+004   = 1.929E+005  Log(1-CN):  5.2854
 1-Norm and 2-Norm Condition Numbers using Diagonalization
   CN : |A|*|A^-1|:  7.829E+000 *  2.465E+004   = 1.929E+005  Log(1-CN):  5.2854
   CN : max/min ev:  6.070E+000 /  5.454E-005   = 1.113E+005  Log(2-CN):  5.0464

 Number of electrons:                                                          2
 Number of occupied orbitals:                                                  1
 Number of molecular orbitals:                                                46

 Number of orbital functions:                                                 46
 Number of independent orbital functions:                                     46

 Extrapolation method: initial_guess

 Atomic guess: The first density matrix is obtained in terms of atomic orbitals
               and electronic configurations assigned to each atomic kind

 Guess for atomic kind: H

 Electronic structure
    Total number of core electrons                                          0.00
    Total number of valence electrons                                       1.00
    Total number of electrons                                               1.00
    Multiplicity                                                   not specified
    S      1.00


 *******************************************************************************
                  Iteration          Convergence                     Energy [au]
 *******************************************************************************
                          1        0.899984E-02                  -0.445273676984
                          2        0.831993E-03                  -0.445370735705
                          3        0.104223E-03                  -0.445373223017
                          4        0.123824E-06                  -0.445373248884

 Energy components [Hartree]           Total Energy ::           -0.445373248884
                                        Band Energy ::           -0.233121027105
                                     Kinetic Energy ::            0.424055116706
                                   Potential Energy ::           -0.869428365590
                                      Virial (-V/T) ::            2.050272078646
                                        Core Energy ::           -0.495782636313
                                          XC Energy ::           -0.232278681357
                                     Coulomb Energy ::            0.282688068786

 Orbital energies  State     L     Occupation   Energy[a.u.]          Energy[eV]

                       1     0          1.000      -0.233121           -6.343546


 Total Electron Density at R=0:                                         0.244200
 Re-scaling the density matrix to get the right number of electrons
                  # Electrons              Trace(P)               Scaling factor
                            2                 2.000                        1.000


 SCF WAVEFUNCTION OPTIMIZATION

  Step     Update method      Time    Convergence         Total energy    Change
  ------------------------------------------------------------------------------

  HFX_MEM_INFO| Est. max. program size before HFX [MiB]:                    1293
  HFX_MEM_INFO| Number of cart. primitive ERI's calculated:              3185727
  HFX_MEM_INFO| Number of sph. ERI's calculated:                         1679046
  HFX_MEM_INFO| Number of sph. ERI's stored in-core:                     1679046
  HFX_MEM_INFO| Number of sph. ERI's stored on disk:                           0
  HFX_MEM_INFO| Number of sph. ERI's calculated on the fly:                    0
  HFX_MEM_INFO| Total memory consumption ERI's RAM [MiB]:                      8
  HFX_MEM_INFO| Whereof max-vals [MiB]:                                        2
  HFX_MEM_INFO| Total compression factor ERI's RAM:                         1.81
  HFX_MEM_INFO| Total memory consumption ERI's disk [MiB]:                     0
  HFX_MEM_INFO| Total compression factor ERI's disk:                        0.00
  HFX_MEM_INFO| Size of density/Fock matrix [MiB]:                             0
  HFX_MEM_INFO| Size of buffers [MiB]:                                         0
  HFX_MEM_INFO| Est. max. program size after HFX  [MiB]:                    1786

     1 NoMix/Diag. 0.10E+00    3.6     1.46399725        -0.9445962885 -9.45E-01
     2 Broy./Diag. 0.10E+00    2.6     0.14031629        -0.7507488667  1.94E-01
     3 Broy./Diag. 0.10E+00    2.6     0.11409059        -0.3502814911  4.00E-01
     4 Broy./Diag. 0.10E+00    2.7     0.01768532        -0.4661763632 -1.16E-01
     5 Broy./Diag. 0.10E+00    2.7     0.03064437        -0.5551432208 -8.90E-02
     6 Broy./Diag. 0.10E+00    2.7     0.01813002        -0.5916609921 -3.65E-02
     7 Broy./Diag. 0.10E+00    2.7     0.09992378        -0.7605357602 -1.69E-01
     8 Broy./Diag. 0.10E+00    2.7     0.04981451        -0.8582846169 -9.77E-02
     9 Broy./Diag. 0.10E+00    2.8     0.01899396        -0.8986108463 -4.03E-02
    10 Broy./Diag. 0.10E+00    2.8     0.02676459        -0.9464662046 -4.79E-02
    11 Broy./Diag. 0.10E+00    2.8     0.10102316        -1.1061105675 -1.60E-01
    12 Broy./Diag. 0.10E+00    2.8     0.01769433        -1.1551600778 -4.90E-02
    13 Broy./Diag. 0.10E+00    2.8     0.00119172        -1.1583932485 -3.23E-03
    14 Broy./Diag. 0.10E+00    2.8     0.00667015        -1.1676928782 -9.30E-03
    15 Broy./Diag. 0.10E+00    2.8     0.00503775        -1.1709919261 -3.30E-03
    16 Broy./Diag. 0.10E+00    2.9     0.00520135        -1.1644429689  6.55E-03
    17 Broy./Diag. 0.10E+00    2.8     0.00240414        -1.1601745390  4.27E-03
    18 Broy./Diag. 0.10E+00    2.9     0.00381561        -1.1634502804 -3.28E-03
    19 Broy./Diag. 0.10E+00    2.8     0.00164671        -1.1663536960 -2.90E-03
    20 Broy./Diag. 0.10E+00    2.8     0.00141525        -1.1676800011 -1.33E-03
    21 Broy./Diag. 0.10E+00    2.8     0.00174887        -1.1701530910 -2.47E-03
    22 Broy./Diag. 0.10E+00    2.9     0.00101869        -1.1691375847  1.02E-03
    23 Broy./Diag. 0.10E+00    2.8     0.00036884        -1.1685376502  6.00E-04
    24 Broy./Diag. 0.10E+00    2.8     0.00027123        -1.1686904804 -1.53E-04
    25 Broy./Diag. 0.10E+00    2.8     0.00034962        -1.1685258542  1.65E-04
    26 Broy./Diag. 0.10E+00    2.8     0.00021348        -1.1683282716  1.98E-04
    27 Broy./Diag. 0.10E+00    2.9     0.00009119        -1.1684380217 -1.10E-04
    28 Broy./Diag. 0.10E+00    2.9     0.00007645        -1.1685792993 -1.41E-04
    29 Broy./Diag. 0.10E+00    2.9     0.00014679        -1.1685863587 -7.06E-06
    30 Broy./Diag. 0.10E+00    2.8     0.00007138        -1.1686510335 -6.47E-05
    31 Broy./Diag. 0.10E+00    2.8     0.00008159        -1.1686581106 -7.08E-06
    32 Broy./Diag. 0.10E+00    2.8     0.00003700        -1.1686599830 -1.87E-06
    33 Broy./Diag. 0.10E+00    2.9     0.00002391        -1.1686473765  1.26E-05
    34 Broy./Diag. 0.10E+00    2.9     0.00002438        -1.1686470043  3.72E-07
    35 Broy./Diag. 0.10E+00    2.8     0.00003660        -1.1685871545  5.98E-05
    36 Broy./Diag. 0.10E+00    3.0     0.00002536        -1.1685520097  3.51E-05
    37 Broy./Diag. 0.10E+00    2.9     0.00008282        -1.1685557302 -3.72E-06
    38 Broy./Diag. 0.10E+00    2.8     0.00002401        -1.1685225756  3.32E-05
    39 Broy./Diag. 0.10E+00    2.8     0.00001057        -1.1684981860  2.44E-05
    40 Broy./Diag. 0.10E+00    2.8     0.00000975        -1.1685041380 -5.95E-06
    41 Broy./Diag. 0.10E+00    2.8     0.00002864        -1.1685038856  2.52E-07
    42 Broy./Diag. 0.10E+00    2.8     0.00002930        -1.1684914014  1.25E-05
    43 Broy./Diag. 0.10E+00    2.9     0.00000366        -1.1684972960 -5.89E-06
    44 Broy./Diag. 0.10E+00    2.8     0.00000177        -1.1684977395 -4.43E-07
    45 Broy./Diag. 0.10E+00    2.8     0.00000676        -1.1684948106  2.93E-06
    46 Broy./Diag. 0.10E+00    2.8     0.00000183        -1.1684958942 -1.08E-06
    47 Broy./Diag. 0.10E+00    2.8     0.00000896        -1.1684965691 -6.75E-07
    48 Broy./Diag. 0.10E+00    2.9     0.00000314        -1.1684970518 -4.83E-07
    49 Broy./Diag. 0.10E+00    2.8     0.00000633        -1.1684956073  1.44E-06
    50 Broy./Diag. 0.10E+00    2.8     0.00000123        -1.1684964674 -8.60E-07
    51 Broy./Diag. 0.10E+00    2.9     0.00000136        -1.1684970910 -6.24E-07
    52 Broy./Diag. 0.10E+00    2.9     0.00000072        -1.1684979928 -9.02E-07

  *** SCF run converged in    52 steps ***


  Electronic density on regular grids:         -1.9956659144        0.0043340856
  Core density on regular grids:                2.0000000000       -0.0000000000
  Hard and soft densities (Lebedev):           -6.5263067997       -6.5219728348
  Total Rho_soft + Rho1_hard - Rho1_soft       -1.9999998793
  Total charge density (r-space):               0.0000001207
  Total Rho_soft + Rho0_soft (g-space):         0.0000001144

  Overlap energy of the core charge distribution:               0.00000051136925
  Self energy of the core charge distribution:                 -2.82094791773878
  Core Hamiltonian energy:                                      0.97959717681719
  Hartree energy:                                               1.09144300804175
  Exchange-correlation energy:                                 -0.52687554415969
  Hartree-Fock Exchange energy:                                -0.16453555949155

  GAPW| Exc from hard and soft atomic rho1:                    -0.00254272767924
  GAPW| local Eh = 1 center integrals:                          0.27536306005044

  Total energy:                                                -1.16849799279065

 !-----------------------------------------------------------------------------!
                     Mulliken Population Analysis

 #  Atom  Element  Kind  Atomic population                           Net charge
       1     H        1          1.000000                             -0.000000
       2     H        1          1.000000                              0.000000
 # Total charge                              2.000000                  0.000000

 !-----------------------------------------------------------------------------!

 !-----------------------------------------------------------------------------!
                           Hirshfeld Charges

  #Atom  Element  Kind  Ref Charge     Population                    Net charge
      1       H      1       1.000          0.933                         0.067
      2       H      1       1.000          0.933                         0.067

  Total Charge                                                            0.135
 !-----------------------------------------------------------------------------!


 RI-RPA section
 --------------

  Used number of processes per group:                                          1
  Maximum allowed memory usage per MPI process:                      1024.00 MiB
  RI_INFO| Cholesky decomposition group size:                                  4
  RI_INFO| Number of groups for auxiliary basis functions                     48

  RI_INFO| RI metric:                                                    COULOMB
  RI_INFO| Number of auxiliary basis functions:                               58
  GENERAL_INFO| Number of basis functions:                                    46
  GENERAL_INFO| Number of occupied orbitals:                                   1
  GENERAL_INFO| Number of virtual orbitals:                                   45
  RI_INFO| Total memory for (ia|K) integrals:                           0.02 MiB
  RI_INFO| Total memory for G0W0-(nm|K) integrals:                      0.94 MiB
  RI_INFO| Total memory for (ij|K) integrals:                           0.00 MiB
  RI_INFO| Total memory for (ab|K) integrals:                           0.90 MiB
  RI_INFO| Group size for frequency integration:                              48
  INTEG_INFO| Clenshaw-Curtius quadrature
  INTEG_INFO| Number of integration points:                                  100
  INTEG_INFO| Number of integration points per RPA group:                    100
  MATRIX_INFO| Number row processes:                                           8
  MATRIX_INFO| Number column processes:                                        6
  MATRIX_INFO| Row block size:                                                 3
  MATRIX_INFO| Column block size:                                              3
  INTEG_INFO| Scaling parameter:                                         0.20000
  INTEG_INFO| Started with Integration point   1 of 100
  INTEG_INFO| Started with Integration point   2 of 100
  INTEG_INFO| Started with Integration point   3 of 100
  INTEG_INFO| Started with Integration point   4 of 100
  INTEG_INFO| Started with Integration point   5 of 100
  INTEG_INFO| Started with Integration point   6 of 100
  INTEG_INFO| Started with Integration point   7 of 100
  INTEG_INFO| Started with Integration point   8 of 100
  INTEG_INFO| Started with Integration point   9 of 100
  INTEG_INFO| Started with Integration point  10 of 100
  INTEG_INFO| Started with Integration point  11 of 100
  INTEG_INFO| Started with Integration point  12 of 100
  INTEG_INFO| Started with Integration point  13 of 100
  INTEG_INFO| Started with Integration point  14 of 100
  INTEG_INFO| Started with Integration point  15 of 100
  INTEG_INFO| Started with Integration point  16 of 100
  INTEG_INFO| Started with Integration point  17 of 100
  INTEG_INFO| Started with Integration point  18 of 100
  INTEG_INFO| Started with Integration point  19 of 100
  INTEG_INFO| Started with Integration point  20 of 100
  INTEG_INFO| Started with Integration point  21 of 100
  INTEG_INFO| Started with Integration point  22 of 100
  INTEG_INFO| Started with Integration point  23 of 100
  INTEG_INFO| Started with Integration point  24 of 100
  INTEG_INFO| Started with Integration point  25 of 100
  INTEG_INFO| Started with Integration point  26 of 100
  INTEG_INFO| Started with Integration point  27 of 100
  INTEG_INFO| Started with Integration point  28 of 100
  INTEG_INFO| Started with Integration point  29 of 100
  INTEG_INFO| Started with Integration point  30 of 100
  INTEG_INFO| Started with Integration point  31 of 100
  INTEG_INFO| Started with Integration point  32 of 100
  INTEG_INFO| Started with Integration point  33 of 100
  INTEG_INFO| Started with Integration point  34 of 100
  INTEG_INFO| Started with Integration point  35 of 100
  INTEG_INFO| Started with Integration point  36 of 100
  INTEG_INFO| Started with Integration point  37 of 100
  INTEG_INFO| Started with Integration point  38 of 100
  INTEG_INFO| Started with Integration point  39 of 100
  INTEG_INFO| Started with Integration point  40 of 100
  INTEG_INFO| Started with Integration point  41 of 100
  INTEG_INFO| Started with Integration point  42 of 100
  INTEG_INFO| Started with Integration point  43 of 100
  INTEG_INFO| Started with Integration point  44 of 100
  INTEG_INFO| Started with Integration point  45 of 100
  INTEG_INFO| Started with Integration point  46 of 100
  INTEG_INFO| Started with Integration point  47 of 100
  INTEG_INFO| Started with Integration point  48 of 100
  INTEG_INFO| Started with Integration point  49 of 100
  INTEG_INFO| Started with Integration point  50 of 100
  INTEG_INFO| Started with Integration point  51 of 100
  INTEG_INFO| Started with Integration point  52 of 100
  INTEG_INFO| Started with Integration point  53 of 100
  INTEG_INFO| Started with Integration point  54 of 100
  INTEG_INFO| Started with Integration point  55 of 100
  INTEG_INFO| Started with Integration point  56 of 100
  INTEG_INFO| Started with Integration point  57 of 100
  INTEG_INFO| Started with Integration point  58 of 100
  INTEG_INFO| Started with Integration point  59 of 100
  INTEG_INFO| Started with Integration point  60 of 100
  INTEG_INFO| Started with Integration point  61 of 100
  INTEG_INFO| Started with Integration point  62 of 100
  INTEG_INFO| Started with Integration point  63 of 100
  INTEG_INFO| Started with Integration point  64 of 100
  INTEG_INFO| Started with Integration point  65 of 100
  INTEG_INFO| Started with Integration point  66 of 100
  INTEG_INFO| Started with Integration point  67 of 100
  INTEG_INFO| Started with Integration point  68 of 100
  INTEG_INFO| Started with Integration point  69 of 100
  INTEG_INFO| Started with Integration point  70 of 100
  INTEG_INFO| Started with Integration point  71 of 100
  INTEG_INFO| Started with Integration point  72 of 100
  INTEG_INFO| Started with Integration point  73 of 100
  INTEG_INFO| Started with Integration point  74 of 100
  INTEG_INFO| Started with Integration point  75 of 100
  INTEG_INFO| Started with Integration point  76 of 100
  INTEG_INFO| Started with Integration point  77 of 100
  INTEG_INFO| Started with Integration point  78 of 100
  INTEG_INFO| Started with Integration point  79 of 100
  INTEG_INFO| Started with Integration point  80 of 100
  INTEG_INFO| Started with Integration point  81 of 100
  INTEG_INFO| Started with Integration point  82 of 100
  INTEG_INFO| Started with Integration point  83 of 100
  INTEG_INFO| Started with Integration point  84 of 100
  INTEG_INFO| Started with Integration point  85 of 100
  INTEG_INFO| Started with Integration point  86 of 100
  INTEG_INFO| Started with Integration point  87 of 100
  INTEG_INFO| Started with Integration point  88 of 100
  INTEG_INFO| Started with Integration point  89 of 100
  INTEG_INFO| Started with Integration point  90 of 100
  INTEG_INFO| Started with Integration point  91 of 100
  INTEG_INFO| Started with Integration point  92 of 100
  INTEG_INFO| Started with Integration point  93 of 100
  INTEG_INFO| Started with Integration point  94 of 100
  INTEG_INFO| Started with Integration point  95 of 100
  INTEG_INFO| Started with Integration point  96 of 100
  INTEG_INFO| Started with Integration point  97 of 100
  INTEG_INFO| Started with Integration point  98 of 100
  INTEG_INFO| Started with Integration point  99 of 100
  INTEG_INFO| Started with Integration point 100 of 100
  PERFORMANCE| Average DGEMM flop rate (Gflops / MPI rank):                 0.01
  
  
  ******************************************************************************
  **                                                                          **
  **                        GW QUASIPARTICLE ENERGIES                         **
  **                                                                          **
  ******************************************************************************
   
   
  The GW quasiparticle energies are calculated according to: 
   
                      E_GW = E_SCF + Sigc(E_GW) + Sigx - vxc 
   
  Upper equation is solved self-consistently for E_GW, see Eq. (12) in J. Phys.
  Chem. Lett. 9, 306 (2018), doi: 10.1021/acs.jpclett.7b02740
  
  
  ------------
  G0W0 results
  ------------
   
  Molecular orbital   E_SCF (eV)       Sigc (eV)   Sigx-vxc (eV)       E_GW (eV)
     1 ( occ )          -11.9961          0.0568         -4.1610        -16.1003
     2 ( vir )            0.7041         -0.1718          1.1179          1.6502
     3 ( vir )            0.7895         -0.0937          0.7329          1.4287
     4 ( vir )            3.2420         -0.3797          1.8442          4.7066
     5 ( vir )            3.5086         -0.3506          2.2742          5.4322
     6 ( vir )            3.5086         -0.3506          2.2742          5.4322
     7 ( vir )            6.2771         -0.2852          1.5318          7.5236
     8 ( vir )            6.7013         -0.1903          1.4488          7.9598
     9 ( vir )            6.7013         -0.1903          1.4488          7.9598
    10 ( vir )            9.0367         -0.5212          2.3022         10.8176
    11 ( vir )            9.4377         -0.4886          1.9956         10.9446
    12 ( vir )           16.9092         -0.8489          3.1044         19.1647
    13 ( vir )           18.1976         -2.1743          3.3366         19.3599
    14 ( vir )           18.1976         -2.1634          3.3366         19.3707
    15 ( vir )           20.8467         -1.2267          4.4817         24.1018
    16 ( vir )           20.8467         -1.2296          4.4817         24.0989
    17 ( vir )           21.2365         -0.6762          2.8366         23.3969
    18 ( vir )           21.2365         -0.6330          2.8366         23.4401
    19 ( vir )           21.4171         -1.7674          3.1701         22.8198
    20 ( vir )           25.4313         -0.9656          2.9760         27.4417
    21 ( vir )           25.6200         -0.1662          2.9038         28.3576
    22 ( vir )           25.6200         -0.4141          2.9038         28.1097
    23 ( vir )           25.9991         -0.4495          3.0557         28.6053
    24 ( vir )           25.9991         -0.4098          3.0557         28.6450
    25 ( vir )           36.7045         -1.5853          4.7347         39.8539
    26 ( vir )           47.9383         -0.2295          4.7749         52.4837
    27 ( vir )           47.9383         -3.0901          4.7749         49.6231
    28 ( vir )           53.5130         -1.0937          4.4421         56.8615
    29 ( vir )           63.7372          0.7061          6.7681         71.2114
    30 ( vir )           72.1468         -5.1749          7.7711         74.7431
    31 ( vir )           90.4200         -9.6037          8.4080         89.2242
    32 ( vir )           90.4200        -10.0198          8.4080         88.8082
    33 ( vir )           90.8182         -3.7764          7.5450         94.5868
    34 ( vir )           90.8182         -3.7538          7.5450         94.6095
    35 ( vir )          104.9343          2.8225          8.1492        115.9060
    36 ( vir )          112.4222         -9.1249          7.4423        110.7396
    37 ( vir )          112.4222         -7.3163          7.4423        112.5482
    38 ( vir )          112.7402          0.9866          7.8221        121.5489
    39 ( vir )          112.7402        -10.0936          7.8221        110.4688
    40 ( vir )          114.9300          5.4448          7.2183        127.5931
    41 ( vir )          114.9300         -6.1644          7.2183        115.9839
    42 ( vir )          133.4375          3.9550          7.7237        145.1162
    43 ( vir )          148.6366          3.6794          8.6643        160.9803
    44 ( vir )          148.6366          3.4368          8.6643        160.7377
    45 ( vir )          154.1487          2.0321          8.8179        164.9987
    46 ( vir )          183.3016          2.7958         10.3994        196.4968
   
  G0W0 HOMO-LUMO gap (eV)                                                17.5290
  
  ------------------------------------------------------------------------------
  
 *******************************************************************************
 **                                                                           **
 **           Bethe Salpeter equation (BSE) for excitation energies           **
 **               solved without Tamm-Dancoff approximation (TDA)             **
 **                                                                           **
 *******************************************************************************
  
 BSE| No cutoff given for occupied orbitals
 BSE| No cutoff given for empty orbitals
 BSE| First occupied index                                                     1
 BSE| Last empty index (not MO index!)                                        45
 BSE| Energy of first occupied index [eV]                                -16.100
 BSE| Energy of last empty index [eV]                                    196.497
 BSE| Energy difference of first occupied index to HOMO [eV]              -0.000
 BSE| Energy difference of last empty index to LUMO [eV]                 194.847
 BSE| Number of GW-corrected occupied MOs                                      1
 BSE| Number of GW-corrected empty MOs                                        45
 BSE|
 BSE| No truncation of BSE matrices applied
 BSE|
 BSE| Total peak memory estimate from BSE [GB]                         1.509E-04
 BSE| Peak memory estimate per MPI rank from BSE [GB]                      0.000
 BSE|
 BSE| Diagonalizing aux. matrix with size of A. This will take around 0.E+00 s.
 BSE| Diagonalizing C. This will take around 0.E+00 s.
 BSE|
 BSE|
 BSE| **************************************************************************
 BSE| *      Full ("ABBA") Bethe Salpeter equation (BSE) (i.e. without TDA)    *
 BSE| **************************************************************************
 BSE|
 BSE| The excitations are calculated by diagonalizing the BSE without the TDA:
 BSE|
 BSE|                |A B| |X^n|       |1  0| |X^n|
 BSE|                |B A| |Y^n| = ^n |0 -1| |Y^n|
 BSE|
 BSE| i.e. in index notation:
 BSE|
 BSE|   sum_jb ( A_ia,jb   X_jb^n + B_ia,jb   Y_jb^n ) = ^n X_ia^n
 BSE| - sum_jb ( B_ia,jb   X_jb^n + A_ia,jb   Y_jb^n ) = ^n Y_ia^n
 BSE|
 BSE|
 BSE| i,j:       occupied molecular orbitals, i.e. state in          [   1,   1]
 BSE| a,b:       unoccupied molecular orbitals, i.e. state in        [   2,  46]
 BSE| n:         Excitation index
 BSE|
 BSE| A_ia,jb = (_a-_i) _ij _ab +  * v_ia,jb - W_ij,ab
 BSE| B_ia,jb =  * v_ia,jb - W_ib,aj
 BSE|
 BSE| prelim Ref.: Eqs. (24-27),(30),(35)
 BSE| in PRB 92,045209 (2015); http://dx.doi.org/10.1103/PhysRevB.92.045209 .
 BSE|
 BSE| The BSE is solved for ^n and X_ia^n as a hermitian problem, e.g. Eq.(42)
 BSE| in PRB 92,045209 (2015); http://dx.doi.org/10.1103/PhysRevB.92.045209 .
 BSE|
 BSE| _...:                 GW quasiparticle energy
 BSE| _...:                 Kronecker delta
 BSE| :                     spin-dependent factor
 BSE| v_...:                 Electron-hole exchange interaction
 BSE| W_... = 1/ v_...:     Direct interaction screened by 
 BSE|                        dielectric function (=0)
 BSE|
 BSE|
 BSE| The spin-dependent factor is for the requested Singlet is  = 2.0
 BSE|
 BSE| Excitation energies from solving the BSE without the TDA:
 BSE|
 BSE|     Excitation n   Spin Config       TDA/ABBA   Excitation energy ^n (eV)
 BSE|                1       Singlet         -ABBA-                      11.9121
 BSE|                2       Singlet         -ABBA-                      12.8857
 BSE|                3       Singlet         -ABBA-                      14.2463
 BSE|                4       Singlet         -ABBA-                      14.2464
 BSE|                5       Singlet         -ABBA-                      15.9599
 BSE|                6       Singlet         -ABBA-                      17.5317
 BSE|                7       Singlet         -ABBA-                      17.6178
 BSE|                8       Singlet         -ABBA-                      17.6181
 BSE|                9       Singlet         -ABBA-                      20.6344
 BSE|               10       Singlet         -ABBA-                      21.3165
 BSE|               11       Singlet         -ABBA-                      26.2580
 BSE|               12       Singlet         -ABBA-                      26.2689
 BSE|               13       Singlet         -ABBA-                      27.9594
 BSE|               14       Singlet         -ABBA-                      30.5489
 BSE|               15       Singlet         -ABBA-                      31.3461
 BSE|               16       Singlet         -ABBA-                      31.3815
 BSE|               17       Singlet         -ABBA-                      31.7200
 BSE|               18       Singlet         -ABBA-                      31.7228
 BSE|               19       Singlet         -ABBA-                      35.4327
 BSE|               20       Singlet         -ABBA-                      35.6804
 BSE|               21       Singlet         -ABBA-                      35.8011
 BSE|               22       Singlet         -ABBA-                      35.8417
 BSE|               23       Singlet         -ABBA-                      35.9314
 BSE|               24       Singlet         -ABBA-                      47.4143
 BSE|               25       Singlet         -ABBA-                      55.7766
 BSE|
 BSE| Single-particle transitions are built up by (de-)excitations,
 BSE| which we denote by
 BSE|
 BSE|              =>        for excitations, i.e. entries of X_ia^n,
 BSE|              <=        for deexcitations, i.e. entries of Y_ia^n.
 BSE|
 BSE| The following single-particle transitions have significant contributions,
 BSE| i.e. |X_ia^n| > 0.100 or |Y_ia^n| > 0.100, respectively :
 BSE|         -- Quick reminder: HOMO i =    1 and LUMO a =    2 --
 BSE|
 BSE| Excitation n           i =>/<=     a      TDA/ABBA       |X_ia^n|/|Y_ia^n|
 BSE|
 BSE|            1           1    =>     2        -ABBA-                  0.6398
 BSE|            1           1    =>     4        -ABBA-                  0.3074
 BSE|
 BSE|            2           1    =>     3        -ABBA-                  0.7020
 BSE|
 BSE|            3           1    =>     5        -ABBA-                  0.6709
 BSE|            3           1    =>     6        -ABBA-                  0.2241
 BSE|
 BSE|            4           1    =>     5        -ABBA-                  0.2241
 BSE|            4           1    =>     6        -ABBA-                  0.6709
 BSE|
 BSE|            5           1    =>     2        -ABBA-                  0.3026
 BSE|            5           1    =>     4        -ABBA-                  0.6303
 BSE|            5           1    =>    11        -ABBA-                  0.1140
 BSE|
 BSE|            6           1    =>     7        -ABBA-                  0.6960
 BSE|
 BSE|            7           1    =>     8        -ABBA-                  0.7036
 BSE|
 BSE|            8           1    =>     9        -ABBA-                  0.7037
 BSE|
 BSE|            9           1    =>    10        -ABBA-                  0.6977
 BSE|
 BSE|           10           1    =>     4        -ABBA-                  0.1100
 BSE|           10           1    =>    11        -ABBA-                  0.6976
 BSE|
 BSE|           11           1    =>    13        -ABBA-                  0.7071
 BSE|
 BSE|           12           1    =>    14        -ABBA-                  0.7071
 BSE|
 BSE|           13           1    =>    12        -ABBA-                  0.7075
 BSE|
 BSE|           14           1    =>    19        -ABBA-                  0.7024
 BSE|
 BSE|           15           1    =>    17        -ABBA-                  0.7032
 BSE|
 BSE|           16           1    =>    18        -ABBA-                  0.7030
 BSE|
 BSE|           17           1    =>    16        -ABBA-                  0.7076
 BSE|
 BSE|           18           1    =>    15        -ABBA-                  0.7076
 BSE|
 BSE|           19           1    =>    22        -ABBA-                  0.7071
 BSE|
 BSE|           20           1    =>    21        -ABBA-                  0.7071
 BSE|
 BSE|           21           1    =>    23        -ABBA-                  0.7071
 BSE|
 BSE|           22           1    =>    24        -ABBA-                  0.7071
 BSE|
 BSE|           23           1    =>    20        -ABBA-                  0.7052
 BSE|
 BSE|           24           1    =>    25        -ABBA-                  0.7071
 BSE|
 BSE|           25           1    =>    27        -ABBA-                  0.7061
 BSE|
 BSE| Transition moments d_r^n (with r(x,y,z), in atomic units)
 BSE| and oscillator strength f^n of excitation level n are obtained from
 BSE|
 BSE|    d_r^n = sum_ia sqrt(2) < _i | r | _a > ( X_ia^n + Y_ia^n )
 BSE|
 BSE|        f^n = 2/3 * ^n sum_r(x,y,z) ( d_r^n )^2
 BSE|
 BSE| where we introduced
 BSE|
 BSE| _i:   occupied molecular orbitals,
 BSE| _a:   empty molecular orbitals and
 BSE|   r:   position operator.
 BSE|
 BSE| prelim Ref.: Eqs. (23), (24)
 BSE| in J. Chem. Phys. 152, 044105 (2020); https://doi.org/10.1063/1.5123290
 BSE|
 BSE| Optical properties from solving the BSE without the TDA:
 BSE|
 BSE|  Excitation n  TDA/ABBA        d_x^n     d_y^n     d_z^n Osc. strength f^n
 BSE|             1    -ABBA-        1.111    -0.000    -0.000             0.360
 BSE|             2    -ABBA-       -0.000    -0.000    -0.000             0.000
 BSE|             3    -ABBA-       -0.000     0.078    -1.049             0.386
 BSE|             4    -ABBA-        0.000    -1.049    -0.078             0.386
 BSE|             5    -ABBA-       -0.503    -0.000     0.000             0.099
 BSE|             6    -ABBA-        0.000    -0.000    -0.000             0.000
 BSE|             7    -ABBA-        0.000    -0.000    -0.000             0.000
 BSE|             8    -ABBA-       -0.000     0.000    -0.000             0.000
 BSE|             9    -ABBA-        0.000    -0.000    -0.000             0.000
 BSE|            10    -ABBA-        0.265    -0.000     0.000             0.037
 BSE|            11    -ABBA-       -0.000     0.000     0.000             0.000
 BSE|            12    -ABBA-        0.000    -0.000     0.000             0.000
 BSE|            13    -ABBA-       -0.212     0.000     0.000             0.031
 BSE|            14    -ABBA-        0.000    -0.000    -0.000             0.000
 BSE|            15    -ABBA-        0.000    -0.000    -0.000             0.000
 BSE|            16    -ABBA-        0.000     0.000    -0.000             0.000
 BSE|            17    -ABBA-        0.000    -0.472     0.218             0.210
 BSE|            18    -ABBA-        0.000     0.218     0.472             0.210
 BSE|            19    -ABBA-        0.000    -0.000    -0.000             0.000
 BSE|            20    -ABBA-        0.000    -0.000    -0.000             0.000
 BSE|            21    -ABBA-        0.000    -0.004    -0.066             0.004
 BSE|            22    -ABBA-        0.000     0.066    -0.004             0.004
 BSE|            23    -ABBA-       -0.057     0.000    -0.000             0.003
 BSE|            24    -ABBA-       -0.000     0.000     0.000             0.000
 BSE|            25    -ABBA-       -0.000    -0.000     0.000             0.000
 BSE|
 BSE| Check for Thomas-Reiche-Kuhn sum rule
 BSE|
 BSE|                              N_e = _n f^n
 BSE|
 BSE| Number of electrons N_e:                                                 2
 BSE| Sum over oscillator strengths _n f^n :                              1.776
 BSE|
 BSE|
 BSE|
 BSE| The BSE was successfully calculated. Have a nice day!

  Total RI-RPA Time=                                                    0.531320


 ENERGY| Total FORCE_EVAL ( QS ) energy [hartree]             -1.168497992790648

 -------------------------------------------------------------------------------
 -                                                                             -
 -                                DBCSR STATISTICS                             -
 -                                                                             -
 -------------------------------------------------------------------------------
 COUNTER                                    TOTAL       BLAS       SMM       ACC
 flops     1 x     1 x    23                 5336     100.0%      0.0%      0.0%     
 flops     1 x    13 x    23                69368     100.0%      0.0%      0.0%     
 flops     1 x    32 x    23               170752     100.0%      0.0%      0.0%     
 flops    23 x    23 x    23               389344     100.0%      0.0%      0.0%     
 flops    23 x     1 x    23               490912     100.0%      0.0%      0.0%     
 flops    13 x    13 x    23               901784     100.0%      0.0%      0.0%     
 flops    14 x    14 x    23              1045856     100.0%      0.0%      0.0%     
 flops    32 x    13 x    23              2219776     100.0%      0.0%      0.0%     
 flops    13 x    32 x    23              2219776     100.0%      0.0%      0.0%     
 flops    23 x    23 x    14              2310672     100.0%      0.0%      0.0%     
 flops    32 x    14 x    23              2390528     100.0%      0.0%      0.0%     
 flops    14 x    32 x    23              2390528     100.0%      0.0%      0.0%     
 flops    23 x    13 x    23              3190928     100.0%      0.0%      0.0%     
 flops    23 x    14 x    23              3614128     100.0%      0.0%      0.0%     
 flops    23 x    23 x    32              5281536     100.0%      0.0%      0.0%     
 flops    32 x    32 x    23             10928128     100.0%      0.0%      0.0%     
 flops    23 x    32 x    23             16115456     100.0%      0.0%      0.0%     
 flops inhomo. stacks                           0       0.0%      0.0%      0.0%
 flops total                        53.734808E+06     100.0%      0.0%      0.0%
 flops max/rank                      6.212668E+06     100.0%      0.0%      0.0%
 matmuls inhomo. stacks                         0       0.0%      0.0%      0.0%
 matmuls total                               3020     100.0%      0.0%      0.0%
 number of processed stacks                  1686     100.0%      0.0%      0.0%
 average stack size                                     1.8       0.0       0.0
 marketing flops                    46.362664E+06
 -------------------------------------------------------------------------------
 # multiplications                             65
 max memory usage/rank               2.136596E+09
 # max total images/rank                        3
 # max 3D layers                                1
 # MPI messages exchanged                   54720
 MPI messages size (bytes):
  total size                        13.508544E+06
  min size                           0.000000E+00
  max size                          11.776000E+03
  average size                     246.866669E+00
 MPI breakdown and total messages size (bytes):
             size <=      128               52782                        0
       128 < size <=     8192                1256                  5841632
      8192 < size <=    32768                 682                  7666912
     32768 < size <=   131072                   0                        0
    131072 < size <=  4194304                   0                        0
   4194304 < size <= 16777216                   0                        0
  16777216 < size                               0                        0
 -------------------------------------------------------------------------------

 *** WARNING in dbcsr_mm.F:301 :: Using a non-square number of MPI ranks ***
 *** might lead to poor performance. Used ranks: 48 Suggested: 49 100    ***

 -------------------------------------------------------------------------------
 -                                                                             -
 -                      DBCSR MESSAGE PASSING PERFORMANCE                      -
 -                                                                             -
 -------------------------------------------------------------------------------
 ROUTINE             CALLS      AVE VOLUME [Bytes]
 MP_Bcast               18                     12.
 MP_Allreduce          415                     10.
 MP_Alltoall          1700                   7446.
 MP_ISend             2646                    736.
 MP_IRecv             2646                    243.
[...]
 https://doi.org/10.1016/j.cpc.2014.10.021

 J. Hutter, M. Iannuzzi, F. Schiffmann, J. VandeVondele.
 WIREs Comput Mol Sci. 4, 15-25 (2014).
 CP2K: atomistic simulations of condensed matter systems.
 https://doi.org/10.1002/wcms.1159

 U. Borstnik, J. VandeVondele, V. Weber, J. Hutter.
 Parallel Comput. 40, 47-58 (2014).
 Sparse matrix multiplication: The distributed block-compressed sparse row 
 library.
 https://doi.org/10.1016/j.parco.2014.03.012

 M. Del Ben, J. Hutter, J. VandeVondele.
 J. Chem. Theory Comput. 9, 2654-2671 (2013).
 Electron Correlation in the Condensed Phase from a Resolution of Identity 
 Approach Based on the Gaussian and Plane Waves Scheme.
 https://doi.org/10.1021/ct4002202

 M. Del Ben, J. Hutter, J. VandeVondele.
 J. Chem. Theory Comput. 8, 4177-4188 (2012).
 Second-Order Moller-Plesset Perturbation Theory in the Condensed Phase: An 
 Efficient and Massively Parallel Gaussian and Plane Waves Approach.
 https://doi.org/10.1021/ct300531w

 M. Guidon, J. Hutter, J. VandeVondele.
 J. Chem. Theory Comput. 5, 3010-3021 (2009).
 Robust Periodic Hartree-Fock Exchange for Large-Scale Simulations Using 
 Gaussian Basis Sets.
 https://doi.org/10.1021/ct900494g

 M. Guidon, F. Schiffmann, J. Hutter, J. VandeVondele.
 J. Chem. Phys. 128, 214104 (2008).
 Ab initio molecular dynamics using hybrid density functionals.
 https://doi.org/10.1063/1.2931945

 L. Genovese, T. Deutsch, S. Goedecker.
 J. Chem. Phys. 127, 054704 (2007).
 Efficient and accurate three-dimensional Poisson solver for surface problems.
 https://doi.org/10.1063/1.2754685

 J. VandeVondele, J. Hutter.
 J. Chem. Phys. 127, 114105 (2007).
 Gaussian basis sets for accurate calculations on molecular systems in gas and 
 condensed phases.
 https://doi.org/10.1063/1.2770708

 L. Genovese, T. Deutsch, A. Neelov, S. Goedecker, G. Beylkin.
 J. Chem. Phys. 125, 074105 (2006).
 Efficient solution of Poisson's equation with free boundary conditions.
 https://doi.org/10.1063/1.2335442

 M. Frigo, S. G. Johnson.
 Proc. IEEE 93, 216-231 (2005).
 The design and implementation of FFTW3.
 https://doi.org/10.1109/JPROC.2004.840301

 M. Krack, M. Parrinello.
 Phys. Chem. Chem. Phys. 2, 2105-2112 (2000).
 All-electron ab-initio molecular dynamics.
 https://doi.org/10.1039/b001167n

 G. Lippert, J. Hutter, M. Parrinello.
 Theor. Chem. Acc. 103, 124-140 (1999).
 The Gaussian and augmented-plane-wave density functional method for ab initio 
 molecular dynamics simulations.
 https://doi.org/10.1007/s002140050523

 J. P. Perdew, K. Burke, M. Ernzerhof.
 Phys. Rev. Lett. 77, 3865-3868 (1996).
 Generalized gradient approximation made simple.
 https://doi.org/10.1103/PhysRevLett.77.3865


 -------------------------------------------------------------------------------
 -                                                                             -
 -                                T I M I N G                                  -
 -                                                                             -
 -------------------------------------------------------------------------------
 SUBROUTINE                       CALLS  ASD         SELF TIME        TOTAL TIME
                                MAXIMUM       AVERAGE  MAXIMUM  AVERAGE  MAXIMUM
 CP2K                                 1  1.0    0.042    0.068  152.145  152.146
 qs_energies                          1  2.0    0.001    0.001  150.978  151.229
 scf_env_do_scf                       1  3.0    0.000    0.000  148.061  148.062
 scf_env_do_scf_inner_loop           52  4.0    0.001    0.004  148.061  148.062
 qs_ks_build_kohn_sham_matrix        53  7.0    0.008    0.009  112.470  112.476
 qs_ks_update_qs_env                 52  5.0    0.000    0.000  111.099  111.105
 rebuild_ks_matrix                   52  6.0    0.000    0.000  111.095  111.101
 fft_wrap_pw1pw2                   1104  9.9    0.024    0.031   62.704   63.436
 fft_wrap_pw1pw2_250                786 11.1    2.694    3.044   60.701   61.426
 fft3d_ps                          1104 11.9   24.877   27.743   50.491   51.123
 pw_poisson_solve                    53  8.0    0.943    1.037   46.325   46.353
 qs_vxc_create                       53  8.0    0.001    0.001   37.362   37.362
 xc_vxc_pw_create                    52  9.0    0.653    0.729   37.361   37.362
 ps_wavelet_solve                    53  9.0   23.834   27.099   30.572   30.764
 xc_pw_derive                       312 11.0    0.003    0.004   27.192   27.896
 mp_alltoall_d54                     53 10.0    4.461   23.844    4.461   23.844
 mp_alltoall_z22v                  1104 13.9   19.631   21.965   19.631   21.965
 qs_rho_update_rho_low               53  5.0    0.001    0.001   19.129   19.129
 calculate_rho_elec                  53  6.0    0.518    0.552   19.113   19.113
 xc_pw_divergence                    52 10.0    0.002    0.002   18.368   18.971
 xc_rho_set_and_dset_create          52 10.0    0.473    0.614   17.974   18.573
 gspace_mixing                       51  5.0    0.498    0.531   17.779   17.779
 x_to_yz                            577 13.1    4.211    4.586   13.638   14.090
 density_rs2pw                       53  7.0    0.003    0.004   13.644   13.889
 yz_to_x                            527 12.8    1.754    2.107   11.958   13.878
 broyden_mixing                      51  6.0   13.089   13.320   13.299   13.365
 sum_up_and_integrate                53  8.0    0.001    0.001   10.597   10.620
 integrate_v_rspace                  53  9.0    0.001    0.002   10.445   10.515
 potential_pw2rs                     53 10.0    0.027    0.030   10.063   10.151
 prepare_gapw_den                    53  8.0    0.001    0.001    7.500    7.632
 put_rho0_on_grid                    53  9.0    0.521    0.557    7.406    7.538
 transfer_pw2rs                     266 10.5    0.004    0.005    7.131    7.221
 transfer_rs2pw                     266  8.4    0.007    0.010    6.332    6.502
 mp_waitany                        7040 11.5    5.514    6.040    5.514    6.040
 grid_collocate_task_list            53  7.0    4.742    4.975    4.742    4.975
 mp_alltoall_d11v                   968  9.4    2.417    4.777    2.417    4.777
 transfer_pw2rs_250                 107 10.9    1.445    1.563    4.597    4.774
 transfer_rs2pw_250                 107 10.0    1.615    1.754    4.364    4.539
 mp_alltoall_d45                     54 10.0    2.132    4.250    2.132    4.250
 xc_functional_eval                 156 10.9    0.000    0.001    3.821    4.244
 pbe_lda_eval                       156 11.9    3.820    4.244    3.820    4.244
 pw_scatter_p                       577 12.1    4.129    4.172    4.129    4.172
 pw_gather_p                        527 11.8    3.460    3.952    3.460    3.952
 pw_derive                          471 11.3    3.023    3.231    3.023    3.231
 integrate_vhg0_rspace               53  8.0    0.012    0.014    2.987    2.997
 hfx_ks_matrix                       53  8.0    0.002    0.002    2.707    2.770
 integrate_four_center               53  9.0    1.137    2.420    2.705    2.766
 mp_sync                            683  9.3    1.333    2.477    1.333    2.477
 mp2_main                             1  3.0    0.000    0.000    2.088    2.338
 mp_sum_d                          1637  6.0    1.392    2.037    1.392    2.037
 cp2k_distribution_to_z_slices       53  9.0    0.998    1.057    1.908    2.027
 pw_copy                            790 10.6    1.806    1.905    1.806    1.905
 fft_wrap_pw1pw2_90                 106 10.5    0.076    0.097    1.601    1.843
 mp_waitall_1                     16306 12.0    0.825    1.762    0.825    1.762
 pw_poisson_set                      54  8.9    0.002    0.002    1.688    1.716
 compute_vec_Sigma_x_minus_vxc_       1  4.0    0.000    0.000    1.379    1.379
 transfer_pw2rs_90                   53 12.0    0.247    0.277    1.036    1.323
 rs_grid_zero                       267 11.1    1.273    1.318    1.273    1.318
 pw_axpy                            525  9.3    1.175    1.283    1.175    1.283
 transfer_pw2rs_30                   53 12.0    0.720    0.780    1.110    1.230
 pw_copy_to_array                   527 11.8    1.106    1.218    1.106    1.218
 pw_poisson_rebuild                  53  9.0    0.000    0.000    1.115    1.141
 ps_wavelet_create                    1 10.0    0.000    0.000    1.115    1.141
 RS_z_slice_distribution              1 11.0    0.995    1.044    1.115    1.141
 pw_integral_ab_c1d_c1d_gs           53  9.0    0.778    0.785    0.848    0.927
 transfer_rs2pw_90                   53  9.0    0.234    0.260    0.845    0.901
 transfer_rs2pw_30                   53  9.0    0.416    0.447    0.855    0.871
 pw_copy_from_array                 577 12.1    0.707    0.867    0.707    0.867
 mp_sum_dm                          375  7.6    0.338    0.718    0.338    0.718
 mp_sendrecv_dv                    4982 10.0    0.614    0.631    0.614    0.631
 init_scf_run                         1  3.0    0.000    0.000    0.617    0.617
 scf_env_initial_rho_setup            1  4.0    0.000    0.000    0.608    0.609
 mp_isend_dv                       6666 11.7    0.356    0.603    0.356    0.603
 pw_zero                            314 10.3    0.507    0.555    0.507    0.555
 mp2_gpw_main                         1  4.0    0.000    0.000    0.521    0.531
 qs_scf_new_mos                      52  5.0    0.001    0.001    0.478    0.491
 mp_irecv_dm3                      1920 11.5    0.237    0.436    0.237    0.436
 qs_init_subsys                       1  2.0    0.003    0.003    0.432    0.433
 transfer_pw2rs_10                   53 12.0    0.181    0.193    0.384    0.429
 qs_env_setup                         1  3.0    0.000    0.000    0.426    0.427
 qs_env_rebuild_pw_env                2  3.5    0.000    0.000    0.425    0.426
 pw_env_rebuild                       1  5.0    0.001    0.001    0.425    0.425
 mp_sum_i                            19  9.5    0.251    0.416    0.251    0.416
 pw_grid_setup                        4  6.0    0.000    0.000    0.416    0.416
 pw_grid_setup_internal               4  7.0    0.010    0.013    0.416    0.416
 mp2_main_alloc_hfx                   1  4.0    0.165    0.416    0.165    0.416
 restraint_control                    1  2.0    0.000    0.000    0.251    0.416
 rpa_ri_compute_en                    1  5.0    0.000    0.000    0.411    0.411
 rpa_num_int                          1  6.0    0.001    0.001    0.408    0.408
 rs_gather_matrices                  53 10.0    0.001    0.003    0.342    0.392
 mp_isend_dm3                      1920 11.5    0.190    0.379    0.190    0.379
 create_qs_kind_set                   1  2.0    0.000    0.000    0.377    0.378
 read_qs_kind                         1  3.0    0.207    0.213    0.377    0.378
 mp_isendrecv_dv                   9964 12.0    0.179    0.371    0.179    0.371
 grid_integrate_task_list            53 10.0    0.039    0.351    0.039    0.351
 calculate_vxc_atom                  53  8.0    0.009    0.077    0.329    0.329
 pw_grid_sort                         4  8.0    0.222    0.227    0.316    0.323
 fft_wrap_pw1pw2_30                 106 10.5    0.013    0.014    0.303    0.318
 Vh_1c_gg_integrals                  53  8.0    0.003    0.020    0.186    0.294
 cp_fm_syevd                         58  6.9    0.000    0.000    0.291    0.292
 eigensolver_symm                    53  6.0    0.002    0.002    0.289    0.290
 scale_and_distribute               106 10.0    0.264    0.282    0.264    0.282
 transfer_rs2pw_10                   53  9.0    0.086    0.094    0.261    0.270
 mp_max_i                           531  2.7    0.165    0.269    0.165    0.269
 cp_fm_redistribute_end              58  7.9    0.137    0.250    0.138    0.251
 integrate_four_center_main          53 10.0    0.009    0.071    0.017    0.249
 compute_GW_self_energy             100  7.0    0.001    0.001    0.217    0.231
 integrate_four_center_bin         4299 11.0    0.008    0.228    0.008    0.228
 cp_fm_syevd_base                    58  7.9    0.111    0.224    0.111    0.224
 gaVxcgb_GC                          52  9.0    0.009    0.217    0.009    0.217
 pw_scale                           209  9.5    0.138    0.179    0.138    0.179
 parser_read_line                 43963  4.0    0.015    0.016    0.170    0.174
 compute_GW_self_energy_deep        100  8.0    0.108    0.121    0.158    0.171
 mixing_init                          1  5.0    0.147    0.167    0.167    0.167
 parser_read_line_low                49  5.0    0.015    0.072    0.155    0.159
 broadcast_input_information         49  6.0    0.036    0.040    0.140    0.150
 mp_sum_dv                         3664 11.5    0.100    0.139    0.100    0.139
 rpa_num_int_RPA_matrix_operati     100  7.0    0.001    0.002    0.130    0.131
 calculate_dm_sparse                 52  6.0    0.000    0.000    0.129    0.131
 calc_screening_functions             1 10.0    0.061    0.061    0.128    0.130
 cp_dbcsr_plus_fm_fm_t               52  7.0    0.001    0.001    0.128    0.130
 powell_optimize                  43634 11.0    0.107    0.110    0.107    0.110
 scf_post_calculation_gpw             1  3.0    0.000    0.000    0.106    0.106
 write_available_results              1  4.0    0.000    0.000    0.106    0.106
 write_mo_free_results                1  5.0    0.012    0.014    0.106    0.106
 qs_energies_init_hamiltonians        1  3.0    0.000    0.000    0.105    0.105
 parallel_gemm_fm                   324  8.7    0.000    0.000    0.101    0.104
 parallel_gemm_fm_gemm              324  9.7    0.000    0.000    0.101    0.104
 cp_fm_gemm                         324 10.7    0.100    0.103    0.100    0.103
 build_core_hamiltonian_matrix        1  4.0    0.000    0.000    0.100    0.100
 overlap_condnum                      1  5.0    0.000    0.000    0.099    0.099
 sort_shells                          4  9.0    0.095    0.096    0.095    0.096
 dbcsr_multiply_generic              73  8.1    0.003    0.004    0.090    0.095
 mp2_ri_gpw_compute_in                1  5.0    0.000    0.000    0.092    0.092
 mp2_ri_gpw_compute_in_loop           1  6.0    0.000    0.000    0.089    0.089
 copy_dbcsr_to_fm                    71  6.4    0.001    0.001    0.075    0.089
 fft_wrap_pw1pw2_10                 106 10.5    0.003    0.003    0.074    0.089
 calc_mat_Q                         100  8.0    0.000    0.000    0.083    0.088
 contract_S_to_Q                    100  9.0    0.000    0.000    0.082    0.087
 calculate_rho_atom                  53  9.0    0.040    0.087    0.040    0.087
 dbcsr_complete_redistribute        179  8.4    0.007    0.010    0.083    0.084
 contract_B_L                         4  7.0    0.001    0.001    0.081    0.083
 xc_pw_smooth                        52 10.0    0.000    0.000    0.055    0.076
 arnoldi_conjugate_gradient           5  6.0    0.002    0.003    0.071    0.071
 mp_bcast_i_src                     196  7.0    0.057    0.071    0.057    0.071
 update_ks_atom                      53  8.0    0.002    0.005    0.058    0.070
 mp_bcast_dm                        212  9.0    0.055    0.068    0.055    0.068
 cp_fm_to_fm_submat_general         112 10.1    0.062    0.066    0.062    0.066
 dbt_total                            8  8.0    0.000    0.000    0.061    0.061
 calc_pair_dist_radii                 1 10.0    0.020    0.021    0.060    0.060
 dbt_contract                         4  9.0    0.001    0.001    0.055    0.056
 dbcsr_desymmetrize_deep             73  7.3    0.002    0.002    0.041    0.055
 cp_fm_cholesky_invert              101  8.0    0.052    0.054    0.052    0.054
 pw_grid_assign                       4  8.0    0.050    0.052    0.052    0.054
 copy_fm_to_dbcsr                   108  8.1    0.000    0.000    0.047    0.049
 mp_bcast_am_src                     49  7.0    0.041    0.043    0.045    0.049
 offload_free_buffer                 61  8.2    0.037    0.047    0.037    0.047
 calculate_hirshfeld_normalizat       1  6.0    0.000    0.000    0.046    0.047
 hirshfeld_integration                1  6.0    0.000    0.000    0.045    0.045
 make_m2s                           146  9.1    0.002    0.003    0.043    0.045
 cp_fm_redistribute_start            58  7.9    0.033    0.035    0.041    0.044
 start_bse_calculation                1  7.0    0.000    0.000    0.043    0.043
 dbcsr_sym_matrix_vector_mult       300  7.0    0.005    0.005    0.031    0.043
 dbt_tas_multiply                     8 11.5    0.000    0.000    0.041    0.041
 dbt_tas_total                        8 12.5    0.001    0.002    0.041    0.041
 compute_Erpa_by_freq_int           100  8.0    0.001    0.001    0.040    0.041
 cp_fm_cholesky_decompose           102  9.0    0.038    0.039    0.038    0.039
 mp_irecv_dv                       6651 11.7    0.024    0.038    0.024    0.038
 integrate_four_center_getP          53 10.0    0.004    0.004    0.034    0.036
 mp_alltoall_i22                    252  9.1    0.022    0.036    0.022    0.036
 multiply_cannon                     73  9.1    0.005    0.006    0.031    0.033
 dbcsr_finalize                    1454 10.7    0.005    0.010    0.016    0.032
 integrate_four_center_dist_KS       53 10.0    0.004    0.005    0.031    0.032
 mp_comm_split_direct                48 14.5    0.021    0.031    0.021    0.031
 vxc_of_r_new                       104  9.0    0.000    0.005    0.001    0.031
 diagonalize_C                        1  8.0    0.000    0.000    0.028    0.029
 mp_cart_create                     269 10.9    0.025    0.028    0.025    0.028
 mp_sum_l                           801  5.5    0.022    0.028    0.022    0.028
 dbcsr_add_d                        490  7.2    0.001    0.001    0.004    0.027
 dbcsr_add_anytype                  490  8.2    0.001    0.004    0.003    0.027
 mp2_main_free_hfx                    1  4.0    0.010    0.026    0.010    0.026
 mp_alltoall_i11v                   610  9.3    0.025    0.026    0.025    0.026
 mp_maxloc_dv                      1515  1.0    0.022    0.025    0.022    0.025
 pw_grid_remap                        4  8.0    0.008    0.008    0.019    0.023
 mp_min_d                             1  6.0    0.020    0.023    0.020    0.023
 postprocess_bse                      1  9.0    0.000    0.000    0.022    0.023
 make_images                        146 10.1    0.004    0.004    0.019    0.020
 hybrid_alltoall_any                219 10.8    0.002    0.002    0.019    0.020
 multiply_cannon_loop                73 10.1    0.004    0.005    0.018    0.020
 cp_fm_power                          2  7.5    0.000    0.000    0.019    0.019
 dbt_distribution_new_expert         72 10.0    0.001    0.001    0.018    0.018
 dbt_tas_estimate_result_nze          4 12.0    0.000    0.000    0.017    0.017
 dbt_tas_distribution_new            96 11.9    0.010    0.010    0.017    0.017
 dbcsr_crop_matrix                  208 10.0    0.001    0.002    0.015    0.016
 dbcsr_merge_all                    939 11.5    0.007    0.013    0.008    0.016
 dbcsr_col_vec_to_rep_row           300  8.0    0.002    0.002    0.007    0.015
 mp_sum_im3                           4  9.0    0.011    0.015    0.011    0.015
 calculate_rho_atom_coeff            53  6.0    0.003    0.007    0.015    0.015
 -------------------------------------------------------------------------------

 The number of warnings for this run is : 1
 
 -------------------------------------------------------------------------------
  **** **** ******  **  PROGRAM ENDED AT                 2025-03-18 23:33:08.777
 ***** ** ***  *** **   PROGRAM RAN ON                              i02r04c06s12
 **    ****   ******    PROGRAM RAN BY                                   di38fab
 ***** **    ** ** **   PROGRAM PROCESS ID                               2046605
  **** **  *******  **  PROGRAM STOPPED IN /hppfs/scratch/04/di38fab/05_MOL/W4-1
                                           1+ALK/h2/aug-cc-pVTZ/GW+BSE
