 DBCSR| CPU Multiplication driver                                           BLAS (U)
 DBCSR| Multrec recursion limit                                              512 (U)
 DBCSR| Multiplication stack size                                           1000 (D)
 DBCSR| Maximum elements for images                                    UNLIMITED (U)
 DBCSR| Multiplicative factor virtual images                                   1 (U)
 DBCSR| Use multiplication densification                                       T (D)
 DBCSR| Multiplication size stacks                                             3 (U)
 DBCSR| Use memory pool for CPU allocation                                     F (U)
 DBCSR| Number of 3D layers                                               SINGLE (U)
 DBCSR| Use MPI memory allocation                                              F (U)
 DBCSR| Use RMA algorithm                                                      F (U)
 DBCSR| Use Communication thread                                               T (U)
 DBCSR| Communication thread load                                             75 (D)
 DBCSR| MPI: My process id                                                     0
 DBCSR| MPI: Number of processes                                              48
 DBCSR| OMP: Current number of threads                                         4
 DBCSR| OMP: Max number of threads                                             4
 DBCSR| Split modifier for TAS multiplication algorithm                  1.0E+00 (U)


  **** **** ******  **  PROGRAM STARTED AT               2025-03-18 22:48:07.946
 ***** ** ***  *** **   PROGRAM STARTED ON                          i03r02c04s09
 **    ****   ******    PROGRAM STARTED BY                               di38fab
 ***** **    ** ** **   PROGRAM PROCESS ID                               2944996
  **** **  *******  **  PROGRAM STARTED IN /hppfs/scratch/04/di38fab/05_MOL/W4-1
                                           1+ALK/li2/aug-cc-pVTZ/GW+BSE

 CP2K| version string:                 CP2K version 2025.1 (Development Version)
 CP2K| source code revision number:                                  git:d2e611a
 CP2K| cp2kflags: omp libint fftw3 libxc parallel scalapack max_contr=4         
 CP2K| is freely available from                            https://www.cp2k.org/
 CP2K| Program compiled at                       Thu 06 Mar 2025 05:09:20 PM CET
 CP2K| Program compiled on                                               login02
 CP2K| Program compiled for                                        Supermuc-foss
 CP2K| Data directory path                  /hppfs/work/pn36zo/di38fab/cp2k/data
 CP2K| Input file name                                                    GW.inp

 GLOBAL| Force Environment number                                              1
 GLOBAL| Basis set file name            /hppfs/scratch/04/di38fab/04_TMD/BASIS_A
 GLOBAL| Potential file name            /hppfs/work/pn36zo/di38fab/cp2k/data/ALL
 GLOBAL| MM Potential file name                                     MM_POTENTIAL
 GLOBAL| Coordinate file name                                      __STD_INPUT__
 GLOBAL| Method name                                                        CP2K
 GLOBAL| Project name                                                       MoS2
 GLOBAL| Run type                                                         ENERGY
 GLOBAL| FFT library                                                       FFTW3
 GLOBAL| Diagonalization library                                       ScaLAPACK
 GLOBAL| DGEMM library                                                      BLAS
 GLOBAL| Orthonormality check for eigenvectors                          DISABLED
 GLOBAL| Matrix multiplication library                                 ScaLAPACK
 GLOBAL| All-to-all communication in single precision                          F
 GLOBAL| FFTs using library dependent lengths                                  F
 GLOBAL| Grid backend                                                       AUTO
 GLOBAL| Global print level                                               MEDIUM
 GLOBAL| MPI I/O enabled                                                       T
 GLOBAL| Total number of message passing processes                            48
 GLOBAL| Number of threads for this process                                    4
 GLOBAL| This output is from process                                           0
 GLOBAL| OpenMP stack size per thread (OMP_STACKSIZE)                    default
 GLOBAL| CPU model name             Intel(R) Xeon(R) Platinum 8174 CPU @ 3.10GHz

 MEMORY| system memory details [Kb]
 MEMORY|                        rank 0           min           max       average
 MEMORY| MemTotal             98436708      98436660      98436708      98436674
 MEMORY| MemFree              84726512      84005204      84726512      84261555
 MEMORY| Buffers                     0             0             0             0
 MEMORY| Cached                2390728       2390728       2422860       2407630
 MEMORY| Slab                  1098072       1098072       1239816       1200897
 MEMORY| SReclaimable           259108        259108        272860        267193
 MEMORY| MemLikelyFree        87376348      86691316      87376348      86936378


 *** Fundamental physical constants (SI units) ***

 *** Literature: B. J. Mohr and B. N. Taylor,
 ***             CODATA recommended values of the fundamental physical
 ***             constants: 2006, Web Version 5.1
 ***             http://physics.nist.gov/constants

 Speed of light in vacuum [m/s]                             2.99792458000000E+08
 Magnetic constant or permeability of vacuum [N/A**2]       1.25663706143592E-06
 Electric constant or permittivity of vacuum [F/m]          8.85418781762039E-12
 Planck constant (h) [J*s]                                  6.62606896000000E-34
 Planck constant (h-bar) [J*s]                              1.05457162825177E-34
 Elementary charge [C]                                      1.60217648700000E-19
 Electron mass [kg]                                         9.10938215000000E-31
 Electron g factor [ ]                                     -2.00231930436220E+00
 Proton mass [kg]                                           1.67262163700000E-27
 Fine-structure constant                                    7.29735253760000E-03
 Rydberg constant [1/m]                                     1.09737315685270E+07
 Avogadro constant [1/mol]                                  6.02214179000000E+23
 Boltzmann constant [J/K]                                   1.38065040000000E-23
 Atomic mass unit [kg]                                      1.66053878200000E-27
 Bohr radius [m]                                            5.29177208590000E-11

 *** Conversion factors ***

 [u] -> [a.u.]                                              1.82288848426455E+03
 [Angstrom] -> [Bohr] = [a.u.]                              1.88972613288564E+00
 [a.u.] = [Bohr] -> [Angstrom]                              5.29177208590000E-01
 [a.u.] -> [s]                                              2.41888432650478E-17
 [a.u.] -> [fs]                                             2.41888432650478E-02
 [a.u.] -> [J]                                              4.35974393937059E-18
 [a.u.] -> [N]                                              8.23872205491840E-08
 [a.u.] -> [K]                                              3.15774647902944E+05
 [a.u.] -> [kJ/mol]                                         2.62549961709828E+03
 [a.u.] -> [kcal/mol]                                       6.27509468713739E+02
 [a.u.] -> [Pa]                                             2.94210107994716E+13
 [a.u.] -> [bar]                                            2.94210107994716E+08
 [a.u.] -> [atm]                                            2.90362800883016E+08
 [a.u.] -> [eV]                                             2.72113838565563E+01
 [a.u.] -> [Hz]                                             6.57968392072181E+15
 [a.u.] -> [1/cm] (wave numbers)                            2.19474631370540E+05
 [a.u./Bohr**2] -> [1/cm]                                   5.14048714338585E+03
 

 CELL_TOP| Volume [angstrom^3]:                                     27000.000000
 CELL_TOP| Vector a [angstrom    30.000     0.000     0.000   |a| =    30.000000
 CELL_TOP| Vector b [angstrom     0.000    30.000     0.000   |b| =    30.000000
 CELL_TOP| Vector c [angstrom     0.000     0.000    30.000   |c| =    30.000000
 CELL_TOP| Angle (b,c), alpha [degree]:                                90.000000
 CELL_TOP| Angle (a,c), beta  [degree]:                                90.000000
 CELL_TOP| Angle (a,b), gamma [degree]:                                90.000000
 CELL_TOP| Numerically orthorhombic:                                         YES
 CELL_TOP| Periodicity                                                      NONE

 GENERATE|  Preliminary Number of Bonds generated:                             0
 GENERATE|  Achieved consistency in connectivity generation.

 CELL| Volume [angstrom^3]:                                         27000.000000
 CELL| Vector a [angstrom]:      30.000     0.000     0.000   |a| =    30.000000
 CELL| Vector b [angstrom]:       0.000    30.000     0.000   |b| =    30.000000
 CELL| Vector c [angstrom]:       0.000     0.000    30.000   |c| =    30.000000
 CELL| Angle (b,c), alpha [degree]:                                    90.000000
 CELL| Angle (a,c), beta  [degree]:                                    90.000000
 CELL| Angle (a,b), gamma [degree]:                                    90.000000
 CELL| Numerically orthorhombic:                                             YES
 CELL| Periodicity                                                          NONE

 CELL_REF| Volume [angstrom^3]:                                     27000.000000
 CELL_REF| Vector a [angstrom    30.000     0.000     0.000   |a| =    30.000000
 CELL_REF| Vector b [angstrom     0.000    30.000     0.000   |b| =    30.000000
 CELL_REF| Vector c [angstrom     0.000     0.000    30.000   |c| =    30.000000
 CELL_REF| Angle (b,c), alpha [degree]:                                90.000000
 CELL_REF| Angle (a,c), beta  [degree]:                                90.000000
 CELL_REF| Angle (a,b), gamma [degree]:                                90.000000
 CELL_REF| Numerically orthorhombic:                                         YES
 CELL_REF| Periodicity                                                      NONE

 *******************************************************************************
 *******************************************************************************
 **                                                                           **
 **     #####                         ##              ##                      **
 **    ##   ##            ##          ##              ##                      **
 **   ##     ##                       ##            ######                    **
 **   ##     ##  ##   ##  ##   #####  ##  ##   ####   ##    #####    #####    **
 **   ##     ##  ##   ##  ##  ##      ## ##   ##      ##   ##   ##  ##   ##   **
 **   ##  ## ##  ##   ##  ##  ##      ####     ###    ##   ######   ######    **
 **    ##  ###   ##   ##  ##  ##      ## ##      ##   ##   ##       ##        **
 **     #######   #####   ##   #####  ##  ##  ####    ##    #####   ##        **
 **           ##                                                    ##        **
 **                                                                           **
 **                                                ... make the atoms dance   **
 **                                                                           **
 **            Copyright (C) by CP2K developers group (2000-2025)             **
 **                      J. Chem. Phys. 152, 194103 (2020)                    **
 **                                                                           **
 *******************************************************************************

 DFT| Spin restricted Kohn-Sham (RKS) calculation                            RKS
 DFT| Multiplicity                                                             1
 DFT| Number of spin states                                                    1
 DFT| Charge                                                                   0
 DFT| Self-interaction correction (SIC)                                       NO
 DFT| Cutoffs: density                                              1.000000E-10
 DFT|          gradient                                             1.000000E-10
 DFT|          tau                                                  1.000000E-10
 DFT|          cutoff_smoothing_range                               0.000000E+00
 DFT| XC density smoothing                                                  NONE
 DFT| XC derivatives                                                          PW

 FUNCTIONAL| PBE:
 FUNCTIONAL| J.P.Perdew, K.Burke, M.Ernzerhof, Phys. Rev. Letter, vol. 77, n 18,
 FUNCTIONAL|  pp. 3865-3868, (1996)sx=0.750sc=1.000{spin unpolarized}           


 QS| Method:                                                                GAPW
 QS| Density plane wave grid type                        NON-SPHERICAL FULLSPACE
 QS| Number of grid levels:                                                    4
 QS| Density cutoff [a.u.]:                                                250.0
 QS| Multi grid cutoff [a.u.]: 1) grid level                               250.0
 QS|                           2) grid level                                83.3
 QS|                           3) grid level                                27.8
 QS|                           4) grid level                                 9.3
 QS| Grid level progression factor:                                          3.0
 QS| Relative density cutoff [a.u.]:                                        50.0
 QS| Interaction thresholds: eps_pgf_orb:                                1.0E-12
 QS|                         eps_filter_matrix:                          0.0E+00
 QS|                         eps_core_charge:                            1.0E-14
 QS|                         eps_rho_gspace:                             1.0E-12
 QS|                         eps_rho_rspace:                             1.0E-12
 QS|                         eps_gvg_rspace:                             1.0E-06
 QS|                         eps_ppl:                                    1.0E-02
 QS|                         eps_ppnl:                                   1.0E-08
 QS| GAPW|      One center basis from orbital basis primitives
 QS| GAPW|                   eps_fit:                                    1.0E-04
 QS| GAPW|                   eps_iso:                                    1.0E-12
 QS| GAPW|                   eps_svd:                                    1.0E-08
 QS| GAPW|                   eps_cpc:                                    1.0E-12
 QS| GAPW|   atom-r-grid: quadrature:                                     GC_LOG
 QS| GAPW|      atom-s-grid:  max l :                                          6
 QS| GAPW|      max_l_rho0 :                                                   2


 ATOMIC KIND INFORMATION

  1. Atomic kind: li                                    Number of atoms:       2

     Orbital Basis Set                                               aug-cc-pVTZ

       Number of orbital shell sets:                                           8
       Number of orbital shells:                                              14
       Number of primitive Cartesian functions:                               23
       Number of Cartesian basis functions:                                   55
       Number of spherical basis functions:                                   46
       Norm type:                                                              2

       Normalised Cartesian orbitals:

                        Set   Shell   Orbital            Exponent    Coefficient

                          1       1    1s                0.007600       0.018345

                          2       1    1px               0.009100       0.004006
                          2       1    1py               0.009100       0.004006
                          2       1    1pz               0.009100       0.004006

                          3       1    1px               3.266000       0.000000
                                                         0.651100       0.000000
                                                         0.169600       0.000000
                                                         0.055780       0.038640
                                                         0.020500       0.000000
                          3       1    1py               3.266000       0.000000
                                                         0.651100       0.000000
                                                         0.169600       0.000000
                                                         0.055780       0.038640
                                                         0.020500       0.000000
                          3       1    1pz               3.266000       0.000000
                                                         0.651100       0.000000
                                                         0.169600       0.000000
                                                         0.055780       0.038640
                                                         0.020500       0.000000

                          3       2    2px               3.266000       0.054010
                                                         0.651100       0.039632
                                                         0.169600       0.032544
                                                         0.055780       0.020422
                                                         0.020500       0.004232
                          3       2    2py               3.266000       0.054010
                                                         0.651100       0.039632
                                                         0.169600       0.032544
                                                         0.055780       0.020422
                                                         0.020500       0.004232
                          3       2    2pz               3.266000       0.054010
                                                         0.651100       0.039632
                                                         0.169600       0.032544
                                                         0.055780       0.020422
                                                         0.020500       0.004232

                          3       3    3px               3.266000       0.000000
                                                         0.651100       0.000000
                                                         0.169600       0.000000
                                                         0.055780       0.000000
                                                         0.020500       0.011057
                          3       3    3py               3.266000       0.000000
                                                         0.651100       0.000000
                                                         0.169600       0.000000
                                                         0.055780       0.000000
                                                         0.020500       0.011057
                          3       3    3pz               3.266000       0.000000
                                                         0.651100       0.000000
                                                         0.169600       0.000000
                                                         0.055780       0.000000
                                                         0.020500       0.011057

                          4       1    1s             5988.000000       0.064524
                                                       898.900000       0.119927
                                                       205.900000       0.204234
                                                        59.240000       0.318508
                                                        19.870000       0.444973
                                                         7.406000       0.530416
                                                         2.930000       0.502833
                                                         1.189000       0.319350
                                                         0.479800       0.078423
                                                         0.075090       0.000553
                                                         0.028320      -0.000065

                          4       2    2s             5988.000000       0.000000
                                                       898.900000       0.000000
                                                       205.900000       0.000000
                                                        59.240000       0.000000
                                                        19.870000       0.000000
                                                         7.406000       0.000000
                                                         2.930000       0.000000
                                                         1.189000       0.000000
                                                         0.479800       0.000000
                                                         0.075090       0.102234
                                                         0.028320       0.000000

                          4       3    3s             5988.000000      -0.010188
                                                       898.900000      -0.018837
                                                       205.900000      -0.031766
                                                        59.240000      -0.050617
                                                        19.870000      -0.070556
                                                         7.406000      -0.089900
                                                         2.930000      -0.089280
                                                         1.189000      -0.080532
                                                         0.479800      -0.046095
                                                         0.075090       0.058058
                                                         0.028320       0.026096

                          4       4    4s             5988.000000       0.000000
                                                       898.900000       0.000000
                                                       205.900000       0.000000
                                                        59.240000       0.000000
                                                        19.870000       0.000000
                                                         7.406000       0.000000
                                                         2.930000       0.000000
                                                         1.189000       0.000000
                                                         0.479800       0.000000
                                                         0.075090       0.000000
                                                         0.028320       0.049202

                          5       1    1dx2              0.042800       0.006629
                          5       1    1dxy              0.042800       0.011481
                          5       1    1dxz              0.042800       0.011481
                          5       1    1dy2              0.042800       0.006629
                          5       1    1dyz              0.042800       0.011481
                          5       1    1dz2              0.042800       0.006629

                          6       1    1dx2              0.190000       0.089997
                                                         0.072500       0.000000
                          6       1    1dxy              0.190000       0.155879
                                                         0.072500       0.000000
                          6       1    1dxz              0.190000       0.155879
                                                         0.072500       0.000000
                          6       1    1dy2              0.190000       0.089997
                                                         0.072500       0.000000
                          6       1    1dyz              0.190000       0.155879
                                                         0.072500       0.000000
                          6       1    1dz2              0.190000       0.089997
                                                         0.072500       0.000000

                          6       2    2dx2              0.190000       0.000000
                                                         0.072500       0.016673
                          6       2    2dxy              0.190000       0.000000
                                                         0.072500       0.028878
                          6       2    2dxz              0.190000       0.000000
                                                         0.072500       0.028878
                          6       2    2dy2              0.190000       0.000000
                                                         0.072500       0.016673
                          6       2    2dyz              0.190000       0.000000
                                                         0.072500       0.028878
                          6       2    2dz2              0.190000       0.000000
                                                         0.072500       0.016673

                          7       1    1fx3              0.081200       0.005182
                          7       1    1fx2y             0.081200       0.011586
                          7       1    1fx2z             0.081200       0.011586
                          7       1    1fxy2             0.081200       0.011586
                          7       1    1fxyz             0.081200       0.020068
                          7       1    1fxz2             0.081200       0.011586
                          7       1    1fy3              0.081200       0.005182
                          7       1    1fy2z             0.081200       0.011586
                          7       1    1fyz2             0.081200       0.011586
                          7       1    1fz3              0.081200       0.005182

                          8       1    1fx3              0.127000       0.014175
                          8       1    1fx2y             0.127000       0.031696
                          8       1    1fx2z             0.127000       0.031696
                          8       1    1fxy2             0.127000       0.031696
                          8       1    1fxyz             0.127000       0.054898
                          8       1    1fxz2             0.127000       0.031696
                          8       1    1fy3              0.127000       0.014175
                          8       1    1fy2z             0.127000       0.031696
                          8       1    1fyz2             0.127000       0.031696
                          8       1    1fz3              0.127000       0.014175

     RI Auxiliary Basis Set                                    aug-cc-pV5Z-RIFIT

       Number of orbital shell sets:                                          46
       Number of orbital shells:                                              46
       Number of primitive Cartesian functions:                               46
       Number of Cartesian basis functions:                                  371
       Number of spherical basis functions:                                  242
       Norm type:                                                              2

       Normalised Cartesian orbitals:

                        Set   Shell   Orbital            Exponent    Coefficient

                          1       1    1s                0.030479       0.051989

                          2       1    1px               0.045175       0.029687
                          2       1    1py               0.045175       0.029687
                          2       1    1pz               0.045175       0.029687

                          3       1    1dx2              0.048718       0.008315
                          3       1    1dxy              0.048718       0.014402
                          3       1    1dxz              0.048718       0.014402
                          3       1    1dy2              0.048718       0.008315
                          3       1    1dyz              0.048718       0.014402
                          3       1    1dz2              0.048718       0.008315

                          4       1    1s                0.064288       0.090993

                          5       1    1fx3              0.065213       0.003164
                          5       1    1fx2y             0.065213       0.007075
                          5       1    1fx2z             0.065213       0.007075
                          5       1    1fxy2             0.065213       0.007075
                          5       1    1fxyz             0.065213       0.012253
                          5       1    1fxz2             0.065213       0.007075
                          5       1    1fy3              0.065213       0.003164
                          5       1    1fy2z             0.065213       0.007075
                          5       1    1fyz2             0.065213       0.007075
                          5       1    1fz3              0.065213       0.003164

                          6       1    1px               0.072777       0.053881
                          6       1    1py               0.072777       0.053881
                          6       1    1pz               0.072777       0.053881

                          7       1    1gx4              0.099854       0.001971
                          7       1    1gx3y             0.099854       0.005215
                          7       1    1gx3z             0.099854       0.005215
                          7       1    1gx2y2            0.099854       0.006732
                          7       1    1gx2yz            0.099854       0.011661
                          7       1    1gx2z2            0.099854       0.006732
                          7       1    1gxy3             0.099854       0.005215
                          7       1    1gxy2z            0.099854       0.011661
                          7       1    1gxyz2            0.099854       0.011661
                          7       1    1gxz3             0.099854       0.005215
                          7       1    1gy4              0.099854       0.001971
                          7       1    1gy3z             0.099854       0.005215
                          7       1    1gy2z2            0.099854       0.006732
                          7       1    1gyz3             0.099854       0.005215
                          7       1    1gz4              0.099854       0.001971

                          8       1    1dx2              0.101078       0.029823
                          8       1    1dxy              0.101078       0.051656
                          8       1    1dxz              0.101078       0.051656
                          8       1    1dy2              0.101078       0.029823
                          8       1    1dyz              0.101078       0.051656
                          8       1    1dz2              0.101078       0.029823

                          9       1    1px               0.121261       0.101998
                          9       1    1py               0.121261       0.101998
                          9       1    1pz               0.121261       0.101998

                         10       1    1s                0.123532       0.148506

                         11       1    1fx3              0.156013       0.022520
                         11       1    1fx2y             0.156013       0.050356
                         11       1    1fx2z             0.156013       0.050356
                         11       1    1fxy2             0.156013       0.050356
                         11       1    1fxyz             0.156013       0.087219
                         11       1    1fxz2             0.156013       0.050356
                         11       1    1fy3              0.156013       0.022520
                         11       1    1fy2z             0.156013       0.050356
                         11       1    1fyz2             0.156013       0.050356
                         11       1    1fz3              0.156013       0.022520

                         12       1    1hx5              0.161413       0.001978
                         12       1    1hx4y             0.161413       0.005933
                         12       1    1hx4z             0.161413       0.005933
                         12       1    1hx3y2            0.161413       0.009063
                         12       1    1hx3yz            0.161413       0.015697
                         12       1    1hx3z2            0.161413       0.009063
                         12       1    1hx2y3            0.161413       0.009063
                         12       1    1hx2y2z           0.161413       0.020265
                         12       1    1hx2yz2           0.161413       0.020265
                         12       1    1hx2z3            0.161413       0.009063
                         12       1    1hxy4             0.161413       0.005933
                         12       1    1hxy3z            0.161413       0.015697
                         12       1    1hxy2z2           0.161413       0.020265
                         12       1    1hxyz3            0.161413       0.015697
                         12       1    1hxz4             0.161413       0.005933
                         12       1    1hy5              0.161413       0.001978
                         12       1    1hy4z             0.161413       0.005933
                         12       1    1hy3z2            0.161413       0.009063
                         12       1    1hy2z3            0.161413       0.009063
                         12       1    1hyz4             0.161413       0.005933
                         12       1    1hz5              0.161413       0.001978

                         13       1    1dx2              0.173452       0.076731
                         13       1    1dxy              0.173452       0.132903
                         13       1    1dxz              0.173452       0.132903
                         13       1    1dy2              0.173452       0.076731
                         13       1    1dyz              0.173452       0.132903
                         13       1    1dz2              0.173452       0.076731

                         14       1    1gx4              0.196188       0.012627
                         14       1    1gx3y             0.196188       0.033407
                         14       1    1gx3z             0.196188       0.033407
                         14       1    1gx2y2            0.196188       0.043128
                         14       1    1gx2yz            0.196188       0.074700
                         14       1    1gx2z2            0.196188       0.043128
                         14       1    1gxy3             0.196188       0.033407
                         14       1    1gxy2z            0.196188       0.074700
                         14       1    1gxyz2            0.196188       0.074700
                         14       1    1gxz3             0.196188       0.033407
                         14       1    1gy4              0.196188       0.012627
                         14       1    1gy3z             0.196188       0.033407
                         14       1    1gy2z2            0.196188       0.043128
                         14       1    1gyz3             0.196188       0.033407
                         14       1    1gz4              0.196188       0.012627

                         15       1    1px               0.223276       0.218772
                         15       1    1py               0.223276       0.218772
                         15       1    1pz               0.223276       0.218772

                         16       1    1s                0.246901       0.249633

                         17       1    1fx3              0.259280       0.070621
                         17       1    1fx2y             0.259280       0.157914
                         17       1    1fx2z             0.259280       0.157914
                         17       1    1fxy2             0.259280       0.157914
                         17       1    1fxyz             0.259280       0.273515
                         17       1    1fxz2             0.259280       0.157914
                         17       1    1fy3              0.259280       0.070621
                         17       1    1fy2z             0.259280       0.157914
                         17       1    1fyz2             0.259280       0.157914
                         17       1    1fz3              0.259280       0.070621

                         18       1    1ix6              0.339630       0.007797
                         18       1    1ix5y             0.339630       0.025861
                         18       1    1ix5z             0.339630       0.025861
                         18       1    1ix4y2            0.339630       0.044793
                         18       1    1ix4yz            0.339630       0.077583
                         18       1    1ix4z2            0.339630       0.044793
                         18       1    1ix3y3            0.339630       0.052999
                         18       1    1ix3y2z           0.339630       0.118510
                         18       1    1ix3yz2           0.339630       0.118510
                         18       1    1ix3z3            0.339630       0.052999
                         18       1    1ix2y4            0.339630       0.044793
                         18       1    1ix2y3z           0.339630       0.118510
                         18       1    1ix2y2z2          0.339630       0.152996
                         18       1    1ix2yz3           0.339630       0.118510
                         18       1    1ix2z4            0.339630       0.044793
                         18       1    1ixy5             0.339630       0.025861
                         18       1    1ixy4z            0.339630       0.077583
                         18       1    1ixy3z2           0.339630       0.118510
                         18       1    1ixy2z3           0.339630       0.118510
                         18       1    1ixyz4            0.339630       0.077583
                         18       1    1ixz5             0.339630       0.025861
                         18       1    1iy6              0.339630       0.007797
                         18       1    1iy5z             0.339630       0.025861
                         18       1    1iy4z2            0.339630       0.044793
                         18       1    1iy3z3            0.339630       0.052999
                         18       1    1iy2z4            0.339630       0.044793
                         18       1    1iyz5             0.339630       0.025861
                         18       1    1iz6              0.339630       0.007797

                         19       1    1dx2              0.339644       0.248715
                         19       1    1dxy              0.339644       0.430786
                         19       1    1dxz              0.339644       0.430786
                         19       1    1dy2              0.339644       0.248715
                         19       1    1dyz              0.339644       0.430786
                         19       1    1dz2              0.339644       0.248715

                         20       1    1s                0.380123       0.345027

                         21       1    1fx3              0.415519       0.204072
                         21       1    1fx2y             0.415519       0.456319
                         21       1    1fx2z             0.415519       0.456319
                         21       1    1fxy2             0.415519       0.456319
                         21       1    1fxyz             0.415519       0.790368
                         21       1    1fxz2             0.415519       0.456319
                         21       1    1fy3              0.415519       0.204072
                         21       1    1fy2z             0.415519       0.456319
                         21       1    1fyz2             0.415519       0.456319
                         21       1    1fz3              0.415519       0.204072

                         22       1    1hx5              0.427119       0.046733
                         22       1    1hx4y             0.427119       0.140200
                         22       1    1hx4z             0.427119       0.140200
                         22       1    1hx3y2            0.427119       0.214160
                         22       1    1hx3yz            0.427119       0.370935
                         22       1    1hx3z2            0.427119       0.214160
                         22       1    1hx2y3            0.427119       0.214160
                         22       1    1hx2y2z           0.427119       0.478876
                         22       1    1hx2yz2           0.427119       0.478876
                         22       1    1hx2z3            0.427119       0.214160
                         22       1    1hxy4             0.427119       0.140200
                         22       1    1hxy3z            0.427119       0.370935
                         22       1    1hxy2z2           0.427119       0.478876
                         22       1    1hxyz3            0.427119       0.370935
                         22       1    1hxz4             0.427119       0.140200
                         22       1    1hy5              0.427119       0.046733
                         22       1    1hy4z             0.427119       0.140200
                         22       1    1hy3z2            0.427119       0.214160
                         22       1    1hy2z3            0.427119       0.214160
                         22       1    1hyz4             0.427119       0.140200
                         22       1    1hz5              0.427119       0.046733

                         23       1    1gx4              0.434910       0.112729
                         23       1    1gx3y             0.434910       0.298252
                         23       1    1gx3z             0.434910       0.298252
                         23       1    1gx2y2            0.434910       0.385041
                         23       1    1gx2yz            0.434910       0.666911
                         23       1    1gx2z2            0.434910       0.385041
                         23       1    1gxy3             0.434910       0.298252
                         23       1    1gxy2z            0.434910       0.666911
                         23       1    1gxyz2            0.434910       0.666911
                         23       1    1gxz3             0.434910       0.298252
                         23       1    1gy4              0.434910       0.112729
                         23       1    1gy3z             0.434910       0.298252
                         23       1    1gy2z2            0.434910       0.385041
                         23       1    1gyz3             0.434910       0.298252
                         23       1    1gz4              0.434910       0.112729

                         24       1    1px               0.520190       0.629713
                         24       1    1py               0.520190       0.629713
                         24       1    1pz               0.520190       0.629713

                         25       1    1hx5              0.598672       0.140026
                         25       1    1hx4y             0.598672       0.420078
                         25       1    1hx4z             0.598672       0.420078
                         25       1    1hx3y2            0.598672       0.641679
                         25       1    1hx3yz            0.598672       1.111421
                         25       1    1hx3z2            0.598672       0.641679
                         25       1    1hx2y3            0.598672       0.641679
                         25       1    1hx2y2z           0.598672       1.434838
                         25       1    1hx2yz2           0.598672       1.434838
                         25       1    1hx2z3            0.598672       0.641679
                         25       1    1hxy4             0.598672       0.420078
                         25       1    1hxy3z            0.598672       1.111421
                         25       1    1hxy2z2           0.598672       1.434838
                         25       1    1hxyz3            0.598672       1.111421
                         25       1    1hxz4             0.598672       0.420078
                         25       1    1hy5              0.598672       0.140026
                         25       1    1hy4z             0.598672       0.420078
                         25       1    1hy3z2            0.598672       0.641679
                         25       1    1hy2z3            0.598672       0.641679
                         25       1    1hyz4             0.598672       0.420078
                         25       1    1hz5              0.598672       0.140026

                         26       1    1ix6              0.598672       0.065334
                         26       1    1ix5y             0.598672       0.216687
                         26       1    1ix5z             0.598672       0.216687
                         26       1    1ix4y2            0.598672       0.375313
                         26       1    1ix4yz            0.598672       0.650061
                         26       1    1ix4z2            0.598672       0.375313
                         26       1    1ix3y3            0.598672       0.444076
                         26       1    1ix3y2z           0.598672       0.992984
                         26       1    1ix3yz2           0.598672       0.992984
                         26       1    1ix3z3            0.598672       0.444076
                         26       1    1ix2y4            0.598672       0.375313
                         26       1    1ix2y3z           0.598672       0.992984
                         26       1    1ix2y2z2          0.598672       1.281937
                         26       1    1ix2yz3           0.598672       0.992984
                         26       1    1ix2z4            0.598672       0.375313
                         26       1    1ixy5             0.598672       0.216687
                         26       1    1ixy4z            0.598672       0.650061
                         26       1    1ixy3z2           0.598672       0.992984
                         26       1    1ixy2z3           0.598672       0.992984
                         26       1    1ixyz4            0.598672       0.650061
                         26       1    1ixz5             0.598672       0.216687
                         26       1    1iy6              0.598672       0.065334
                         26       1    1iy5z             0.598672       0.216687
                         26       1    1iy4z2            0.598672       0.375313
                         26       1    1iy3z3            0.598672       0.444076
                         26       1    1iy2z4            0.598672       0.375313
                         26       1    1iyz5             0.598672       0.216687
                         26       1    1iz6              0.598672       0.065334

                         27       1    1s                0.705917       0.548877

                         28       1    1fx3              0.764640       0.804883
                         28       1    1fx2y             0.764640       1.799773
                         28       1    1fx2z             0.764640       1.799773
                         28       1    1fxy2             0.764640       1.799773
                         28       1    1fxyz             0.764640       3.117298
                         28       1    1fxz2             0.764640       1.799773
                         28       1    1fy3              0.764640       0.804883
                         28       1    1fy2z             0.764640       1.799773
                         28       1    1fyz2             0.764640       1.799773
                         28       1    1fz3              0.764640       0.804883

                         29       1    1dx2              0.771893       1.046247
                         29       1    1dxy              0.771893       1.812154
                         29       1    1dxz              0.771893       1.812154
                         29       1    1dy2              0.771893       1.046247
                         29       1    1dyz              0.771893       1.812154
                         29       1    1dz2              0.771893       1.046247

                         30       1    1gx4              0.856517       0.726874
                         30       1    1gx3y             0.856517       1.923129
                         30       1    1gx3z             0.856517       1.923129
                         30       1    1gx2y2            0.856517       2.482749
                         30       1    1gx2yz            0.856517       4.300247
                         30       1    1gx2z2            0.856517       2.482749
                         30       1    1gxy3             0.856517       1.923129
                         30       1    1gxy2z            0.856517       4.300247
                         30       1    1gxyz2            0.856517       4.300247
                         30       1    1gxz3             0.856517       1.923129
                         30       1    1gy4              0.856517       0.726874
                         30       1    1gy3z             0.856517       1.923129
                         30       1    1gy2z2            0.856517       2.482749
                         30       1    1gyz3             0.856517       1.923129
                         30       1    1gz4              0.856517       0.726874

                         31       1    1px               1.029950       1.478973
                         31       1    1py               1.029950       1.478973
                         31       1    1pz               1.029950       1.478973

                         32       1    1hx5              1.185280       1.289028
                         32       1    1hx4y             1.185280       3.867083
                         32       1    1hx4z             1.185280       3.867083
                         32       1    1hx3y2            1.185280       5.907067
                         32       1    1hx3yz            1.185280      10.231341
                         32       1    1hx3z2            1.185280       5.907067
                         32       1    1hx2y3            1.185280       5.907067
                         32       1    1hx2y2z           1.185280      13.208604
                         32       1    1hx2yz2           1.185280      13.208604
                         32       1    1hx2z3            1.185280       5.907067
                         32       1    1hxy4             1.185280       3.867083
                         32       1    1hxy3z            1.185280      10.231341
                         32       1    1hxy2z2           1.185280      13.208604
                         32       1    1hxyz3            1.185280      10.231341
                         32       1    1hxz4             1.185280       3.867083
                         32       1    1hy5              1.185280       1.289028
                         32       1    1hy4z             1.185280       3.867083
                         32       1    1hy3z2            1.185280       5.907067
                         32       1    1hy2z3            1.185280       5.907067
                         32       1    1hyz4             1.185280       3.867083
                         32       1    1hz5              1.185280       1.289028

                         33       1    1fx3              1.349290       2.888626
                         33       1    1fx2y             1.349290       6.459165
                         33       1    1fx2z             1.349290       6.459165
                         33       1    1fxy2             1.349290       6.459165
                         33       1    1fxyz             1.349290      11.187602
                         33       1    1fxz2             1.349290       6.459165
                         33       1    1fy3              1.349290       2.888626
                         33       1    1fy2z             1.349290       6.459165
                         33       1    1fyz2             1.349290       6.459165
                         33       1    1fz3              1.349290       2.888626

                         34       1    1dx2              1.351630       2.788757
                         34       1    1dxy              1.351630       4.830269
                         34       1    1dxz              1.351630       4.830269
                         34       1    1dy2              1.351630       2.788757
                         34       1    1dyz              1.351630       4.830269
                         34       1    1dz2              1.351630       2.788757

                         35       1    1s                1.423940       0.929028

                         36       1    1gx4              1.819640       5.772919
                         36       1    1gx3y             1.819640      15.273709
                         36       1    1gx3z             1.819640      15.273709
                         36       1    1gx2y2            1.819640      19.718273
                         36       1    1gx2yz            1.819640      34.153051
                         36       1    1gx2z2            1.819640      19.718273
                         36       1    1gxy3             1.819640      15.273709
                         36       1    1gxy2z            1.819640      34.153051
                         36       1    1gxyz2            1.819640      34.153051
                         36       1    1gxz3             1.819640      15.273709
                         36       1    1gy4              1.819640       5.772919
                         36       1    1gy3z             1.819640      15.273709
                         36       1    1gy2z2            1.819640      19.718273
                         36       1    1gyz3             1.819640      15.273709
                         36       1    1gz4              1.819640       5.772919

                         37       1    1px               2.347260       4.141347
                         37       1    1py               2.347260       4.141347
                         37       1    1pz               2.347260       4.141347

                         38       1    1dx2              2.681530       9.248666
                         38       1    1dxy              2.681530      16.019160
                         38       1    1dxz              2.681530      16.019160
                         38       1    1dy2              2.681530       9.248666
                         38       1    1dyz              2.681530      16.019160
                         38       1    1dz2              2.681530       9.248666

                         39       1    1s                2.891360       1.580290

                         40       1    1fx3              3.229490      20.582865
                         40       1    1fx2y             3.229490      46.024685
                         40       1    1fx2z             3.229490      46.024685
                         40       1    1fxy2             3.229490      46.024685
                         40       1    1fxyz             3.229490      79.717093
                         40       1    1fxz2             3.229490      46.024685
                         40       1    1fy3              3.229490      20.582865
                         40       1    1fy2z             3.229490      46.024685
                         40       1    1fyz2             3.229490      46.024685
                         40       1    1fz3              3.229490      20.582865

                         41       1    1px               6.081490      13.612960
                         41       1    1py               6.081490      13.612960
                         41       1    1pz               6.081490      13.612960

                         42       1    1dx2              6.963580      49.132227
                         42       1    1dxy              6.963580      85.099514
                         42       1    1dxz              6.963580      85.099514
                         42       1    1dy2              6.963580      49.132227
                         42       1    1dyz              6.963580      85.099514
                         42       1    1dz2              6.963580      49.132227

                         43       1    1s                7.795370       3.324969

                         44       1    1px              20.093900      60.641563
                         44       1    1py              20.093900      60.641563
                         44       1    1pz              20.093900      60.641563

                         45       1    1s               24.228600       7.783167

                         46       1    1s              115.553000      25.118634

       Atomic covalent radius [Angstrom]:                                  1.230

       Atomic van der Waals radius [Angstrom]:                             1.820

     The atoms of this atomic kind are PAW atoms (GAPW):
       Hard Gaussian function radius:                                      1.512
       Rho0 radius:                                                        1.512
       Maximum GTO radius used for PAW projector construction:            24.566

     GAPW Soft Basis Set                                        aug-cc-pVTZ_soft

       Number of orbital shell sets:                                           8
       Number of orbital shells:                                              14
       Number of primitive Cartesian functions:                               17
       Number of Cartesian basis functions:                                   55
       Number of spherical basis functions:                                   46
       Norm type:                                                              2

       Normalised Cartesian orbitals:

                        Set   Shell   Orbital            Exponent    Coefficient

                          1       1    1s                0.007600       0.018345

                          2       1    1px               0.009100       0.004006
                          2       1    1py               0.009100       0.004006
                          2       1    1pz               0.009100       0.004006

                          3       1    1px               3.266000       0.000000
                                                         0.651100       0.000000
                                                         0.169600       0.000000
                                                         0.055780       0.038640
                                                         0.020500       0.000000
                          3       1    1py               3.266000       0.000000
                                                         0.651100       0.000000
                                                         0.169600       0.000000
                                                         0.055780       0.038640
                                                         0.020500       0.000000
                          3       1    1pz               3.266000       0.000000
                                                         0.651100       0.000000
                                                         0.169600       0.000000
                                                         0.055780       0.038640
                                                         0.020500       0.000000

                          3       2    2px               3.266000       0.054010
                                                         0.651100       0.039632
                                                         0.169600       0.032544
                                                         0.055780       0.020422
                                                         0.020500       0.004232
                          3       2    2py               3.266000       0.054010
                                                         0.651100       0.039632
                                                         0.169600       0.032544
                                                         0.055780       0.020422
                                                         0.020500       0.004232
                          3       2    2pz               3.266000       0.054010
                                                         0.651100       0.039632
                                                         0.169600       0.032544
                                                         0.055780       0.020422
                                                         0.020500       0.004232

                          3       3    3px               3.266000       0.000000
                                                         0.651100       0.000000
                                                         0.169600       0.000000
                                                         0.055780       0.000000
                                                         0.020500       0.011057
                          3       3    3py               3.266000       0.000000
                                                         0.651100       0.000000
                                                         0.169600       0.000000
                                                         0.055780       0.000000
                                                         0.020500       0.011057
                          3       3    3pz               3.266000       0.000000
                                                         0.651100       0.000000
                                                         0.169600       0.000000
                                                         0.055780       0.000000
                                                         0.020500       0.011057

                          4       1    1s                2.930000       0.502833
                                                         1.189000       0.319350
                                                         0.479800       0.078423
                                                         0.075090       0.000553
                                                         0.028320      -0.000065

                          4       2    2s                2.930000       0.000000
                                                         1.189000       0.000000
                                                         0.479800       0.000000
                                                         0.075090       0.102234
                                                         0.028320       0.000000

                          4       3    3s                2.930000      -0.089280
                                                         1.189000      -0.080532
                                                         0.479800      -0.046095
                                                         0.075090       0.058058
                                                         0.028320       0.026096

                          4       4    4s                2.930000       0.000000
                                                         1.189000       0.000000
                                                         0.479800       0.000000
                                                         0.075090       0.000000
                                                         0.028320       0.049202

                          5       1    1dx2              0.042800       0.006629
                          5       1    1dxy              0.042800       0.011481
                          5       1    1dxz              0.042800       0.011481
                          5       1    1dy2              0.042800       0.006629
                          5       1    1dyz              0.042800       0.011481
                          5       1    1dz2              0.042800       0.006629

                          6       1    1dx2              0.190000       0.089997
                                                         0.072500       0.000000
                          6       1    1dxy              0.190000       0.155879
                                                         0.072500       0.000000
                          6       1    1dxz              0.190000       0.155879
                                                         0.072500       0.000000
                          6       1    1dy2              0.190000       0.089997
                                                         0.072500       0.000000
                          6       1    1dyz              0.190000       0.155879
                                                         0.072500       0.000000
                          6       1    1dz2              0.190000       0.089997
                                                         0.072500       0.000000

                          6       2    2dx2              0.190000       0.000000
                                                         0.072500       0.016673
                          6       2    2dxy              0.190000       0.000000
                                                         0.072500       0.028878
                          6       2    2dxz              0.190000       0.000000
                                                         0.072500       0.028878
                          6       2    2dy2              0.190000       0.000000
                                                         0.072500       0.016673
                          6       2    2dyz              0.190000       0.000000
                                                         0.072500       0.028878
                          6       2    2dz2              0.190000       0.000000
                                                         0.072500       0.016673

                          7       1    1fx3              0.081200       0.005182
                          7       1    1fx2y             0.081200       0.011586
                          7       1    1fx2z             0.081200       0.011586
                          7       1    1fxy2             0.081200       0.011586
                          7       1    1fxyz             0.081200       0.020068
                          7       1    1fxz2             0.081200       0.011586
                          7       1    1fy3              0.081200       0.005182
                          7       1    1fy2z             0.081200       0.011586
                          7       1    1fyz2             0.081200       0.011586
                          7       1    1fz3              0.081200       0.005182

                          8       1    1fx3              0.127000       0.014175
                          8       1    1fx2y             0.127000       0.031696
                          8       1    1fx2z             0.127000       0.031696
                          8       1    1fxy2             0.127000       0.031696
                          8       1    1fxyz             0.127000       0.054898
                          8       1    1fxz2             0.127000       0.031696
                          8       1    1fy3              0.127000       0.014175
                          8       1    1fy2z             0.127000       0.031696
                          8       1    1fyz2             0.127000       0.031696
                          8       1    1fz3              0.127000       0.014175

     AE Potential information for                                            ALL

       Description:                                       All-electron potential
                                          Krack, Parrinello, PCCP 2, 2105 (2000)

       Gaussian exponent of the core charge distribution:               3.125000
       Electronic configuration (s p d ...):                           3   0   0


 MOLECULE KIND INFORMATION


 All atoms are their own molecule, skipping detailed information


 TOTAL NUMBERS AND MAXIMUM NUMBERS

  Total number of            - Atomic kinds:                                   1
                             - Atoms:                                          2
                             - Shell sets:                                    16
                             - Shells:                                        28
                             - Primitive Cartesian functions:                 46
                             - Cartesian basis functions:                    110
                             - Spherical basis functions:                     92

  Maximum angular momentum of the orbital basis functions:                     3


 MODULE QUICKSTEP: ATOMIC COORDINATES IN ANGSTROM

   Atom Kind Element         X             Y             Z       Z(eff)     Mass
      1    1 li    3     15.000000     15.000000     16.394718   3.0000   6.9410
      2    1 li    3     15.000000     15.000000     13.605282   3.0000   6.9410



 SCF PARAMETERS         Density guess:                                    ATOMIC
                        --------------------------------------------------------
                        max_scf:                                             500
                        max_scf_history:                                       0
                        max_diis:                                              4
                        --------------------------------------------------------
                        eps_scf:                                        1.00E-06
                        eps_scf_history:                                0.00E+00
                        eps_diis:                                       1.00E-01
                        eps_eigval:                                     1.00E-05
                        --------------------------------------------------------
                        level_shift [a.u.]:                             0.000000
                        added MOs                                        89    0
                        --------------------------------------------------------
                        Mixing method:                            BROYDEN_MIXING
                                                charge density mixing in g-space
                        --------------------------------------------------------
                        Smear method:                                FERMI_DIRAC
                        Electronic temperature [K]:                        300.0
                        Electronic temperature [a.u.]:                  9.50E-04
                        Accuracy threshold:                             1.00E-10
                        --------------------------------------------------------
                        No outer SCF

 PW_GRID| Information for grid number                                          1
 PW_GRID| Grid distributed over                                    48 processors
 PW_GRID| Real space group dimensions                                    48    1
 PW_GRID| the grid is blocked:                                                NO
 PW_GRID| Cutoff [a.u.]                                                    250.0
 PW_GRID| spherical cutoff:                                                   NO
 PW_GRID|   Bounds   1           -202     202                Points:         405
 PW_GRID|   Bounds   2           -202     202                Points:         405
 PW_GRID|   Bounds   3           -202     202                Points:         405
 PW_GRID| Volume element (a.u.^3)  0.2743E-02     Volume (a.u.^3)    182205.0337
 PW_GRID| Grid span                                                    FULLSPACE
 PW_GRID|   Distribution                         Average         Max         Min
 PW_GRID|   G-Vectors                          1383960.9     1384290     1383885
 PW_GRID|   G-Rays                                3417.2        3418        3417
 PW_GRID|   Real Space Points                  1383960.9     1476225     1312200

 PW_GRID| Information for grid number                                          2
 PW_GRID| Number of the reference grid                                         1
 PW_GRID| Grid distributed over                                    48 processors
 PW_GRID| Real space group dimensions                                    48    1
 PW_GRID| the grid is blocked:                                                NO
 PW_GRID| Cutoff [a.u.]                                                     83.3
 PW_GRID| spherical cutoff:                                                   NO
 PW_GRID|   Bounds   1           -120     119                Points:         240
 PW_GRID|   Bounds   2           -120     119                Points:         240
 PW_GRID|   Bounds   3           -120     119                Points:         240
 PW_GRID| Volume element (a.u.^3)  0.1318E-01     Volume (a.u.^3)    182205.0337
 PW_GRID| Grid span                                                    FULLSPACE
 PW_GRID|   Distribution                         Average         Max         Min
 PW_GRID|   G-Vectors                           288000.0      288720      287520
 PW_GRID|   G-Rays                                1200.0        1203        1198
 PW_GRID|   Real Space Points                   288000.0      288000      288000

 PW_GRID| Information for grid number                                          3
 PW_GRID| Number of the reference grid                                         1
 PW_GRID| Grid distributed over                                    48 processors
 PW_GRID| Real space group dimensions                                    48    1
 PW_GRID| the grid is blocked:                                                NO
 PW_GRID| Cutoff [a.u.]                                                     27.8
 PW_GRID| spherical cutoff:                                                   NO
 PW_GRID|   Bounds   1            -67      67                Points:         135
 PW_GRID|   Bounds   2            -67      67                Points:         135
 PW_GRID|   Bounds   3            -67      67                Points:         135
 PW_GRID| Volume element (a.u.^3)  0.7406E-01     Volume (a.u.^3)    182205.0337
 PW_GRID| Grid span                                                    FULLSPACE
 PW_GRID|   Distribution                         Average         Max         Min
 PW_GRID|   G-Vectors                            51257.8       51570       51030
 PW_GRID|   G-Rays                                 379.7         382         378
 PW_GRID|   Real Space Points                    51257.8       54675       36450

 PW_GRID| Information for grid number                                          4
 PW_GRID| Number of the reference grid                                         1
 PW_GRID| Grid distributed over                                    48 processors
 PW_GRID| Real space group dimensions                                    48    1
 PW_GRID| the grid is blocked:                                                NO
 PW_GRID| Cutoff [a.u.]                                                      9.3
 PW_GRID| spherical cutoff:                                                   NO
 PW_GRID|   Bounds   1            -40      39                Points:          80
 PW_GRID|   Bounds   2            -40      39                Points:          80
 PW_GRID|   Bounds   3            -40      39                Points:          80
 PW_GRID| Volume element (a.u.^3)  0.3559         Volume (a.u.^3)    182205.0337
 PW_GRID| Grid span                                                    FULLSPACE
 PW_GRID|   Distribution                         Average         Max         Min
 PW_GRID|   G-Vectors                            10666.7       10800       10560
 PW_GRID|   G-Rays                                 133.3         135         132
 PW_GRID|   Real Space Points                    10666.7       12800        6400

 POISSON| Solver                                                         WAVELET
 POISSON| Wavelet| Scaling function                                           40
 POISSON| Periodicity                                                       NONE

 RS_GRID| Information for grid number                                          1
 RS_GRID|   Bounds   1           -202     202                Points:         405
 RS_GRID|   Bounds   2           -202     202                Points:         405
 RS_GRID|   Bounds   3           -202     202                Points:         405
 RS_GRID| Real space distribution over                                  3 groups
 RS_GRID| Real space distribution along direction                              1
 RS_GRID| Border size                                                         33
 RS_GRID| Real space distribution over                                  4 groups
 RS_GRID| Real space distribution along direction                              2
 RS_GRID| Border size                                                         33
 RS_GRID| Real space distribution over                                  4 groups
 RS_GRID| Real space distribution along direction                              3
 RS_GRID| Border size                                                         33
 RS_GRID|   Distribution                         Average         Max         Min
 RS_GRID|   Planes                                 201.0         201         201
 RS_GRID|   Distribution                         Average         Max         Min
 RS_GRID|   Planes                                 167.2         168         167
 RS_GRID|   Distribution                         Average         Max         Min
 RS_GRID|   Planes                                 167.2         168         167

 RS_GRID| Information for grid number                                          2
 RS_GRID|   Bounds   1           -120     119                Points:         240
 RS_GRID|   Bounds   2           -120     119                Points:         240
 RS_GRID|   Bounds   3           -120     119                Points:         240
 RS_GRID| Real space distribution over                                  3 groups
 RS_GRID| Real space distribution along direction                              1
 RS_GRID| Border size                                                         37
[...]
 library.
 https://doi.org/10.1016/j.parco.2014.03.012

 M. Del Ben, J. Hutter, J. VandeVondele.
 J. Chem. Theory Comput. 9, 2654-2671 (2013).
 Electron Correlation in the Condensed Phase from a Resolution of Identity 
 Approach Based on the Gaussian and Plane Waves Scheme.
 https://doi.org/10.1021/ct4002202

 M. Del Ben, J. Hutter, J. VandeVondele.
 J. Chem. Theory Comput. 8, 4177-4188 (2012).
 Second-Order Moller-Plesset Perturbation Theory in the Condensed Phase: An 
 Efficient and Massively Parallel Gaussian and Plane Waves Approach.
 https://doi.org/10.1021/ct300531w

 M. Guidon, J. Hutter, J. VandeVondele.
 J. Chem. Theory Comput. 5, 3010-3021 (2009).
 Robust Periodic Hartree-Fock Exchange for Large-Scale Simulations Using 
 Gaussian Basis Sets.
 https://doi.org/10.1021/ct900494g

 M. Guidon, F. Schiffmann, J. Hutter, J. VandeVondele.
 J. Chem. Phys. 128, 214104 (2008).
 Ab initio molecular dynamics using hybrid density functionals.
 https://doi.org/10.1063/1.2931945

 L. Genovese, T. Deutsch, S. Goedecker.
 J. Chem. Phys. 127, 054704 (2007).
 Efficient and accurate three-dimensional Poisson solver for surface problems.
 https://doi.org/10.1063/1.2754685

 J. VandeVondele, J. Hutter.
 J. Chem. Phys. 127, 114105 (2007).
 Gaussian basis sets for accurate calculations on molecular systems in gas and 
 condensed phases.
 https://doi.org/10.1063/1.2770708

 L. Genovese, T. Deutsch, A. Neelov, S. Goedecker, G. Beylkin.
 J. Chem. Phys. 125, 074105 (2006).
 Efficient solution of Poisson's equation with free boundary conditions.
 https://doi.org/10.1063/1.2335442

 M. Frigo, S. G. Johnson.
 Proc. IEEE 93, 216-231 (2005).
 The design and implementation of FFTW3.
 https://doi.org/10.1109/JPROC.2004.840301

 M. Krack, M. Parrinello.
 Phys. Chem. Chem. Phys. 2, 2105-2112 (2000).
 All-electron ab-initio molecular dynamics.
 https://doi.org/10.1039/b001167n

 G. Lippert, J. Hutter, M. Parrinello.
 Theor. Chem. Acc. 103, 124-140 (1999).
 The Gaussian and augmented-plane-wave density functional method for ab initio 
 molecular dynamics simulations.
 https://doi.org/10.1007/s002140050523

 J. P. Perdew, K. Burke, M. Ernzerhof.
 Phys. Rev. Lett. 77, 3865-3868 (1996).
 Generalized gradient approximation made simple.
 https://doi.org/10.1103/PhysRevLett.77.3865


 -------------------------------------------------------------------------------
 -                                                                             -
 -                                T I M I N G                                  -
 -                                                                             -
 -------------------------------------------------------------------------------
 SUBROUTINE                       CALLS  ASD         SELF TIME        TOTAL TIME
                                MAXIMUM       AVERAGE  MAXIMUM  AVERAGE  MAXIMUM
 CP2K                                 1  1.0    0.041    0.069  207.096  207.096
 qs_energies                          1  2.0    0.001    0.001  205.957  206.182
 scf_env_do_scf                       1  3.0    0.000    0.000  200.344  200.345
 scf_env_do_scf_inner_loop           67  4.0    0.002    0.004  200.344  200.345
 qs_ks_build_kohn_sham_matrix        68  7.0    0.010    0.012  152.819  152.831
 qs_ks_update_qs_env                 67  5.0    0.000    0.001  151.396  151.407
 rebuild_ks_matrix                   67  6.0    0.000    0.000  151.390  151.401
 fft_wrap_pw1pw2                   1419  9.9    0.032    0.043   81.500   83.004
 fft_wrap_pw1pw2_250               1011 11.1    3.493    3.918   78.764   80.093
 fft3d_ps                          1419 11.9   31.876   35.463   65.764   67.057
 pw_poisson_solve                    68  8.0    1.213    1.341   59.248   59.284
 qs_vxc_create                       68  8.0    0.001    0.001   48.793   48.793
 xc_vxc_pw_create                    67  9.0    0.843    0.964   48.792   48.792
 ps_wavelet_solve                    68  9.0   30.579   34.496   39.247   39.500
 xc_pw_derive                       402 11.0    0.004    0.005   35.578   36.619
 mp_alltoall_d54                     68 10.0    5.696   30.603    5.696   30.603
 mp_alltoall_z22v                  1419 13.9   26.203   29.651   26.203   29.651
 xc_pw_divergence                    67 10.0    0.002    0.003   24.230   25.339
 qs_rho_update_rho_low               68  5.0    0.001    0.001   25.124   25.124
 calculate_rho_elec                  68  6.0    0.665    0.709   25.032   25.032
 xc_rho_set_and_dset_create          67 10.0    0.610    0.774   23.232   24.851
 gspace_mixing                       66  5.0    0.645    0.687   23.408   23.408
 yz_to_x                            677 12.8    2.256    2.734   16.044   18.802
 x_to_yz                            742 13.1    5.406    5.812   17.821   18.477
 density_rs2pw                       68  7.0    0.004    0.005   17.716   18.066
 broyden_mixing                      66  6.0   17.338   17.637   17.600   17.688
 sum_up_and_integrate                68  8.0    0.001    0.001   14.598   14.637
 integrate_v_rspace                  68  9.0    0.002    0.002   14.403   14.516
 potential_pw2rs                     68 10.0    0.035    0.041   13.331   13.419
 prepare_gapw_den                    68  8.0    0.001    0.001   10.270   10.421
 put_rho0_on_grid                    68  9.0    0.669    0.719    9.562    9.713
 transfer_pw2rs                     341 10.6    0.005    0.006    9.548    9.686
 transfer_rs2pw                     341  8.4    0.008    0.011    8.257    8.497
 hfx_ks_matrix                       68  8.0    0.002    0.003    8.152    8.225
 mp_waitany                        9020 11.5    7.430    8.223    7.430    8.223
 integrate_four_center               68  9.0    1.460    3.098    8.149    8.221
 mp_sync                            773  9.4    5.237    6.885    5.237    6.885
 grid_collocate_task_list            68  7.0    6.363    6.883    6.363    6.883
 mp_alltoall_d11v                  1424  9.6    3.374    6.753    3.374    6.753
 transfer_pw2rs_250                 137 10.9    1.900    2.039    6.177    6.485
 xc_functional_eval                 201 10.9    0.001    0.001    4.992    6.341
 pbe_lda_eval                       201 11.9    4.991    6.341    4.991    6.341
 transfer_rs2pw_250                 137 10.0    1.992    2.241    5.618    5.879
 mp_alltoall_d45                     69 10.0    2.795    5.456    2.795    5.456
 pw_scatter_p                       742 12.1    5.314    5.390    5.314    5.390
 pw_gather_p                        677 11.8    4.455    5.160    4.455    5.160
 mp2_main                             1  3.0    0.000    0.000    4.723    4.948
 integrate_four_center_main          68 10.0    0.081    3.423    0.185    4.389
 integrate_four_center_bin         5382 11.0    0.103    4.344    0.103    4.344
 pw_derive                          606 11.3    3.911    4.143    3.911    4.143
 integrate_vhg0_rspace               68  8.0    0.054    0.063    4.069    4.079
 mp_sum_d                          2060  6.3    3.088    4.010    3.088    4.010
 mp2_gpw_main                         1  4.0    0.000    0.000    3.086    3.096
 rpa_ri_compute_en                    1  5.0    0.000    0.000    2.781    2.781
 rpa_num_int                          1  6.0    0.001    0.001    2.762    2.762
 cp2k_distribution_to_z_slices       68  9.0    1.278    1.357    2.407    2.568
 fft_wrap_pw1pw2_90                 136 10.5    0.099    0.129    2.198    2.501
 pw_copy                           1015 10.6    2.314    2.476    2.314    2.476
 compute_GW_self_energy             100  7.0    0.001    0.002    2.210    2.240
 pw_poisson_set                      69  8.9    0.002    0.003    2.166    2.202
 mp_waitall_1                     22414 12.1    1.196    2.126    1.196    2.126
 compute_GW_self_energy_deep        100  8.0    0.839    0.866    1.821    1.851
 transfer_pw2rs_90                   68 12.0    0.348    0.404    1.445    1.830
 rs_grid_zero                       342 11.2    1.723    1.769    1.723    1.769
 calculate_vxc_atom                  68  8.0    0.015    0.184    1.643    1.643
 pw_axpy                            675  9.3    1.514    1.628    1.514    1.628
 transfer_pw2rs_30                   68 12.0    0.930    1.002    1.424    1.560
 pw_copy_to_array                   677 11.8    1.414    1.550    1.414    1.550
 compute_vec_Sigma_x_minus_vxc_       1  4.0    0.000    0.000    1.433    1.433
 gaVxcgb_GC                          67  9.0    0.059    1.410    0.059    1.410
 transfer_rs2pw_90                   68  9.0    0.321    0.350    1.205    1.316
 parallel_gemm_fm                   354  8.5    0.001    0.001    1.217    1.222
 parallel_gemm_fm_gemm              354  9.5    0.001    0.001    1.217    1.221
 cp_fm_gemm                         354 10.5    1.216    1.221    1.216    1.221
 pw_integral_ab_c1d_c1d_gs           68  9.0    0.998    1.010    1.116    1.219
 pw_poisson_rebuild                  68  9.0    0.000    0.000    1.151    1.176
 ps_wavelet_create                    1 10.0    0.000    0.000    1.151    1.176
 RS_z_slice_distribution              1 11.0    0.991    1.070    1.151    1.176
 pw_copy_from_array                 742 12.1    0.910    1.120    0.910    1.120
 transfer_rs2pw_30                   68  9.0    0.534    0.564    1.081    1.100
 rs_gather_matrices                  68 10.0    0.001    0.018    0.709    1.080
 grid_integrate_task_list            68 10.0    0.362    1.054    0.362    1.054
 mp_sum_dm                          480  7.6    0.530    0.926    0.530    0.926
 calc_screening_functions             1 10.0    0.626    0.664    0.843    0.882
 qs_scf_new_mos                      67  5.0    0.001    0.001    0.848    0.857
 mp_sendrecv_dv                    6392 10.0    0.781    0.807    0.781    0.807
 mp_irecv_dm3                      2460 11.5    0.389    0.786    0.389    0.786
 mp_isend_dv                       8626 11.8    0.437    0.761    0.437    0.761
 pw_zero                            404 10.3    0.654    0.710    0.654    0.710
 calculate_rho_atom                  68  9.0    0.262    0.648    0.262    0.648
 cp_fm_syevd                         73  7.0    0.000    0.001    0.621    0.623
 init_scf_run                         1  3.0    0.000    0.000    0.619    0.619
 scf_env_initial_rho_setup            1  4.0    0.000    0.000    0.606    0.606
 eigensolver_symm                    68  6.0    0.002    0.002    0.588    0.589
 cp_fm_redistribute_end              73  8.0    0.300    0.570    0.302    0.572
 mp_isend_dm3                      2460 11.5    0.260    0.553    0.260    0.553
 cp_fm_syevd_base                    73  8.0    0.269    0.539    0.269    0.539
 transfer_pw2rs_10                   68 12.0    0.233    0.251    0.497    0.531
 mp_sum_dv                         4135 11.2    0.466    0.527    0.466    0.527
 mp_isendrecv_dv                  12784 12.0    0.235    0.460    0.235    0.460
 qs_init_subsys                       1  2.0    0.005    0.008    0.456    0.456
 qs_env_setup                         1  3.0    0.000    0.000    0.444    0.447
 qs_env_rebuild_pw_env                2  3.5    0.000    0.000    0.443    0.445
 pw_env_rebuild                       1  5.0    0.001    0.001    0.442    0.445
 rpa_num_int_RPA_matrix_operati     100  7.0    0.001    0.002    0.425    0.426
 fft_wrap_pw1pw2_30                 136 10.5    0.016    0.018    0.409    0.424
 pw_grid_setup                        4  6.0    0.000    0.000    0.416    0.418
 pw_grid_setup_internal               4  7.0    0.010    0.013    0.416    0.418
 Vh_1c_gg_integrals                  68  8.0    0.009    0.127    0.266    0.406
 mp_sum_i                            19  9.5    0.225    0.401    0.225    0.401
 restraint_control                    1  2.0    0.000    0.000    0.225    0.400
 mp2_main_alloc_hfx                   1  4.0    0.175    0.400    0.175    0.400
 powell_optimize                 151047 11.0    0.368    0.381    0.368    0.381
 cp_fm_cholesky_invert              101  8.0    0.352    0.374    0.352    0.374
 scale_and_distribute               136 10.0    0.338    0.363    0.338    0.363
 transfer_rs2pw_10                   68  9.0    0.111    0.120    0.344    0.352
 create_qs_kind_set                   1  2.0    0.000    0.000    0.351    0.351
 read_qs_kind                         1  3.0    0.191    0.236    0.351    0.351
 mp_max_i                           546  2.9    0.218    0.344    0.218    0.344
 pw_grid_sort                         4  8.0    0.223    0.225    0.318    0.321
 mp2_ri_gpw_compute_in                1  5.0    0.000    0.001    0.288    0.288
 mp2_ri_gpw_compute_in_loop           1  6.0    0.000    0.000    0.273    0.274
 calc_mat_Q                         100  8.0    0.000    0.000    0.239    0.242
 contract_S_to_Q                    100  9.0    0.000    0.000    0.238    0.241
 calc_pair_dist_radii                 1 10.0    0.083    0.085    0.234    0.240
 pw_scale                           269  9.5    0.179    0.219    0.179    0.219
 contract_B_L                         4  7.0    0.002    0.002    0.165    0.210
 cp_fm_cholesky_decompose           102  9.0    0.178    0.179    0.178    0.179
 compute_Erpa_by_freq_int           100  8.0    0.001    0.001    0.179    0.179
 calculate_dm_sparse                 67  6.0    0.000    0.000    0.166    0.171
 cp_dbcsr_plus_fm_fm_t               67  7.0    0.001    0.001    0.166    0.170
 parser_read_line                 39640  4.0    0.014    0.016    0.160    0.166
 qs_energies_init_hamiltonians        1  3.0    0.000    0.000    0.158    0.158
 dbcsr_multiply_generic             160  8.1    0.006    0.006    0.149    0.155
 build_core_hamiltonian_matrix        1  4.0    0.000    0.000    0.153    0.153
 parser_read_line_low                44  5.0    0.013    0.067    0.146    0.152
 overlap_condnum                      1  5.0    0.000    0.000    0.150    0.151
 mixing_init                          1  5.0    0.145    0.149    0.150    0.151
 broadcast_input_information         44  6.0    0.034    0.036    0.134    0.145
 mp_cart_create                     335 10.6    0.093    0.136    0.094    0.137
 mp2_eri_3c_integrate                 1  7.0    0.001    0.001    0.059    0.126
 integrate_set_3c                   960  8.0    0.053    0.113    0.058    0.125
 dbt_pgrid_create_expert             80 10.7    0.000    0.000    0.078    0.123
 copy_dbcsr_to_fm                   122  6.8    0.002    0.002    0.110    0.119
 fft_wrap_pw1pw2_10                 136 10.5    0.004    0.004    0.098    0.116
 arnoldi_conjugate_gradient           5  6.0    0.003    0.004    0.115    0.115
 integrate_four_center_dist_KS       68 10.0    0.006    0.008    0.113    0.114
 integrate_four_center_getP          68 10.0    0.006    0.007    0.112    0.113
 scf_post_calculation_gpw             1  3.0    0.000    0.000    0.112    0.112
 write_available_results              1  4.0    0.000    0.000    0.112    0.112
 write_mo_free_results                1  5.0    0.013    0.014    0.112    0.112
 dbcsr_complete_redistribute        260  8.5    0.011    0.015    0.108    0.109
 xc_pw_smooth                        67 10.0    0.000    0.000    0.070    0.099
 sort_shells                          4  9.0    0.095    0.097    0.095    0.097
 mp_irecv_dv                       8601 11.8    0.049    0.094    0.049    0.094
 start_bse_calculation                1  7.0    0.000    0.000    0.091    0.091
 calculate_rho_atom_coeff            68  6.0    0.007    0.021    0.091    0.091
 mp_sum_l                          1092  6.5    0.066    0.091    0.066    0.091
 update_ks_atom                      68  8.0    0.004    0.014    0.058    0.082
 dbt_total                            8  8.0    0.000    0.000    0.075    0.075
 make_m2s                           320  9.1    0.004    0.004    0.070    0.073
 dbcsr_sym_matrix_vector_mult       442  7.0    0.007    0.008    0.049    0.071
 dbcsr_desymmetrize_deep            124  7.8    0.003    0.004    0.059    0.068
 mp_bcast_dm                        272  9.0    0.053    0.067    0.053    0.067
 dbt_contract                         4  9.0    0.001    0.001    0.067    0.067
 mp_bcast_i_src                     176  7.0    0.054    0.067    0.054    0.067
 integrate_four_center_load          68 10.0    0.000    0.001    0.045    0.066
 hfx_load_balance                     1 11.0    0.000    0.000    0.044    0.066
 hfx_load_balance_range               1 12.0    0.000    0.001    0.040    0.062
 copy_fm_to_dbcsr                   138  8.1    0.001    0.001    0.058    0.061
 offload_free_buffer                 76  8.4    0.048    0.058    0.048    0.058
 cp_fm_to_fm_submat_general         112 10.1    0.051    0.058    0.051    0.058
 calculate_rho0_atom                 68  9.0    0.053    0.057    0.053    0.057
 mp_bcast_iv_src                     44  7.0    0.004    0.054    0.004    0.054
 multiply_cannon                    160  9.1    0.011    0.011    0.049    0.054
 cp_fm_redistribute_start            73  8.0    0.039    0.041    0.050    0.054
 pw_grid_assign                       4  8.0    0.050    0.052    0.051    0.053
 cp_fm_uplo_to_full                 104  8.0    0.024    0.052    0.024    0.052
 mp_bcast_am_src                     44  7.0    0.038    0.047    0.043    0.051
 hirshfeld_integration                1  6.0    0.001    0.004    0.050    0.051
 dbcsr_finalize                    2081 10.6    0.007    0.015    0.026    0.049
 dbt_tas_multiply                     8 11.5    0.000    0.000    0.048    0.048
 dbt_tas_total                        8 12.5    0.001    0.001    0.048    0.048
 calculate_hirshfeld_normalizat       1  6.0    0.001    0.004    0.047    0.048
 diagonalize_C                        1  8.0    0.000    0.000    0.047    0.048
 mp_alltoall_i22                    384  9.3    0.034    0.044    0.034    0.044
 cp_fm_power                          2  7.5    0.000    0.001    0.043    0.043
 dbcsr_add_d                        718  7.2    0.001    0.001    0.006    0.042
 dbcsr_add_anytype                  718  8.2    0.001    0.006    0.005    0.042
 vxc_of_r_new                       134  9.0    0.000    0.006    0.002    0.041
 make_images                        320 10.1    0.008    0.009    0.038    0.039
 rs_scatter_matrices                 68  7.0    0.001    0.002    0.032    0.033
 mp_comm_split_direct                48 14.5    0.021    0.032    0.021    0.032
 mp_alltoall_i11v                   904  9.4    0.031    0.031    0.031    0.031
 multiply_cannon_loop               160 10.1    0.006    0.006    0.027    0.031
 hybrid_alltoall_any                444 11.1    0.005    0.005    0.027    0.028
 create_hermitian_form_of_ABBA        1  8.0    0.000    0.000    0.026    0.026
 dbcsr_col_vec_to_rep_row           442  8.0    0.003    0.004    0.011    0.025
 mp_maxloc_dv                      1519  1.0    0.023    0.025    0.023    0.025
 dbcsr_merge_all                   1395 11.4    0.011    0.020    0.014    0.025
 mp2_main_free_hfx                    1  4.0    0.010    0.024    0.010    0.024
 postprocess_bse                      1  9.0    0.000    0.000    0.023    0.023
 dbcsr_rep_row_to_rep_col_vec       442  8.0    0.002    0.003    0.007    0.022
 -------------------------------------------------------------------------------

 The number of warnings for this run is : 1
 
 -------------------------------------------------------------------------------
  **** **** ******  **  PROGRAM ENDED AT                 2025-03-18 22:51:35.731
 ***** ** ***  *** **   PROGRAM RAN ON                              i03r02c04s09
 **    ****   ******    PROGRAM RAN BY                                   di38fab
 ***** **    ** ** **   PROGRAM PROCESS ID                               2944996
  **** **  *******  **  PROGRAM STOPPED IN /hppfs/scratch/04/di38fab/05_MOL/W4-1
                                           1+ALK/li2/aug-cc-pVTZ/GW+BSE
