 DBCSR| CPU Multiplication driver                                           BLAS (U)
 DBCSR| Multrec recursion limit                                              512 (U)
 DBCSR| Multiplication stack size                                           1000 (D)
 DBCSR| Maximum elements for images                                    UNLIMITED (U)
 DBCSR| Multiplicative factor virtual images                                   1 (U)
 DBCSR| Use multiplication densification                                       T (D)
 DBCSR| Multiplication size stacks                                             3 (U)
 DBCSR| Use memory pool for CPU allocation                                     F (U)
 DBCSR| Number of 3D layers                                               SINGLE (U)
 DBCSR| Use MPI memory allocation                                              F (U)
 DBCSR| Use RMA algorithm                                                      F (U)
 DBCSR| Use Communication thread                                               T (U)
 DBCSR| Communication thread load                                             75 (D)
 DBCSR| MPI: My process id                                                     0
 DBCSR| MPI: Number of processes                                              24
 DBCSR| OMP: Current number of threads                                         4
 DBCSR| OMP: Max number of threads                                             4
 DBCSR| Split modifier for TAS multiplication algorithm                  1.0E+00 (U)


  **** **** ******  **  PROGRAM STARTED AT               2025-03-10 22:50:39.147
 ***** ** ***  *** **   PROGRAM STARTED ON                          i03r11c05s10
 **    ****   ******    PROGRAM STARTED BY                               di38fab
 ***** **    ** ** **   PROGRAM PROCESS ID                               1817411
  **** **  *******  **  PROGRAM STARTED IN /hppfs/scratch/04/di38fab/05_MOL/W4-1
                                           1+ALK/h2/aug-cc-pVTZ

 CP2K| version string:                 CP2K version 2025.1 (Development Version)
 CP2K| source code revision number:                                  git:47877ba
 CP2K| cp2kflags: omp libint fftw3 libxc parallel scalapack max_contr=4         
 CP2K| is freely available from                            https://www.cp2k.org/
 CP2K| Program compiled at                          Thu Feb 20 16:00:34 CET 2025
 CP2K| Program compiled on                                               login04
 CP2K| Program compiled for                                        Supermuc-foss
 CP2K| Data directory path          /hppfs/work/pn36zo/di38fab/newcp2k/cp2k/data
 CP2K| Input file name                                                    GW.inp

 GLOBAL| Force Environment number                                              1
 GLOBAL| Basis set file name            /hppfs/scratch/04/di38fab/04_TMD/BASIS_A
 GLOBAL| Potential file name            /hppfs/work/pn36zo/di38fab/cp2k/data/ALL
 GLOBAL| MM Potential file name                                     MM_POTENTIAL
 GLOBAL| Coordinate file name                                      __STD_INPUT__
 GLOBAL| Method name                                                        CP2K
 GLOBAL| Project name                                                       MoS2
 GLOBAL| Run type                                                         ENERGY
 GLOBAL| FFT library                                                       FFTW3
 GLOBAL| Diagonalization library                                       ScaLAPACK
 GLOBAL| DGEMM library                                                      BLAS
 GLOBAL| Orthonormality check for eigenvectors                          DISABLED
 GLOBAL| Matrix multiplication library                                 ScaLAPACK
 GLOBAL| All-to-all communication in single precision                          F
 GLOBAL| FFTs using library dependent lengths                                  F
 GLOBAL| Grid backend                                                       AUTO
 GLOBAL| Global print level                                               MEDIUM
 GLOBAL| MPI I/O enabled                                                       T
 GLOBAL| Total number of message passing processes                            24
 GLOBAL| Number of threads for this process                                    4
 GLOBAL| This output is from process                                           0
 GLOBAL| OpenMP stack size per thread (OMP_STACKSIZE)                    default
 GLOBAL| CPU model name             Intel(R) Xeon(R) Platinum 8174 CPU @ 3.10GHz

 MEMORY| system memory details [Kb]
 MEMORY|                        rank 0           min           max       average
 MEMORY| MemTotal             98436708      98436660      98436708      98436684
 MEMORY| MemFree              83921724      83921724      84090656      84006190
 MEMORY| Buffers                     0             0             0             0
 MEMORY| Cached                2428252       2428252       2452848       2440550
 MEMORY| Slab                  1274224       1233704       1274224       1253964
 MEMORY| SReclaimable           284804        266216        284804        275510
 MEMORY| MemLikelyFree        86634780      86634780      86809720      86722250


 *** Fundamental physical constants (SI units) ***

 *** Literature: B. J. Mohr and B. N. Taylor,
 ***             CODATA recommended values of the fundamental physical
 ***             constants: 2006, Web Version 5.1
 ***             http://physics.nist.gov/constants

 Speed of light in vacuum [m/s]                             2.99792458000000E+08
 Magnetic constant or permeability of vacuum [N/A**2]       1.25663706143592E-06
 Electric constant or permittivity of vacuum [F/m]          8.85418781762039E-12
 Planck constant (h) [J*s]                                  6.62606896000000E-34
 Planck constant (h-bar) [J*s]                              1.05457162825177E-34
 Elementary charge [C]                                      1.60217648700000E-19
 Electron mass [kg]                                         9.10938215000000E-31
 Electron g factor [ ]                                     -2.00231930436220E+00
 Proton mass [kg]                                           1.67262163700000E-27
 Fine-structure constant                                    7.29735253760000E-03
 Rydberg constant [1/m]                                     1.09737315685270E+07
 Avogadro constant [1/mol]                                  6.02214179000000E+23
 Boltzmann constant [J/K]                                   1.38065040000000E-23
 Atomic mass unit [kg]                                      1.66053878200000E-27
 Bohr radius [m]                                            5.29177208590000E-11

 *** Conversion factors ***

 [u] -> [a.u.]                                              1.82288848426455E+03
 [Angstrom] -> [Bohr] = [a.u.]                              1.88972613288564E+00
 [a.u.] = [Bohr] -> [Angstrom]                              5.29177208590000E-01
 [a.u.] -> [s]                                              2.41888432650478E-17
 [a.u.] -> [fs]                                             2.41888432650478E-02
 [a.u.] -> [J]                                              4.35974393937059E-18
 [a.u.] -> [N]                                              8.23872205491840E-08
 [a.u.] -> [K]                                              3.15774647902944E+05
 [a.u.] -> [kJ/mol]                                         2.62549961709828E+03
 [a.u.] -> [kcal/mol]                                       6.27509468713739E+02
 [a.u.] -> [Pa]                                             2.94210107994716E+13
 [a.u.] -> [bar]                                            2.94210107994716E+08
 [a.u.] -> [atm]                                            2.90362800883016E+08
 [a.u.] -> [eV]                                             2.72113838565563E+01
 [a.u.] -> [Hz]                                             6.57968392072181E+15
 [a.u.] -> [1/cm] (wave numbers)                            2.19474631370540E+05
 [a.u./Bohr**2] -> [1/cm]                                   5.14048714338585E+03
 

 CELL_TOP| Volume [angstrom^3]:                                     27000.000000
 CELL_TOP| Vector a [angstrom    30.000     0.000     0.000   |a| =    30.000000
 CELL_TOP| Vector b [angstrom     0.000    30.000     0.000   |b| =    30.000000
 CELL_TOP| Vector c [angstrom     0.000     0.000    30.000   |c| =    30.000000
 CELL_TOP| Angle (b,c), alpha [degree]:                                90.000000
 CELL_TOP| Angle (a,c), beta  [degree]:                                90.000000
 CELL_TOP| Angle (a,b), gamma [degree]:                                90.000000
 CELL_TOP| Numerically orthorhombic:                                         YES
 CELL_TOP| Periodicity                                                      NONE

 GENERATE|  Preliminary Number of Bonds generated:                             0
 GENERATE|  Achieved consistency in connectivity generation.

 CELL| Volume [angstrom^3]:                                         27000.000000
 CELL| Vector a [angstrom]:      30.000     0.000     0.000   |a| =    30.000000
 CELL| Vector b [angstrom]:       0.000    30.000     0.000   |b| =    30.000000
 CELL| Vector c [angstrom]:       0.000     0.000    30.000   |c| =    30.000000
 CELL| Angle (b,c), alpha [degree]:                                    90.000000
 CELL| Angle (a,c), beta  [degree]:                                    90.000000
 CELL| Angle (a,b), gamma [degree]:                                    90.000000
 CELL| Numerically orthorhombic:                                             YES
 CELL| Periodicity                                                          NONE

 CELL_REF| Volume [angstrom^3]:                                     27000.000000
 CELL_REF| Vector a [angstrom    30.000     0.000     0.000   |a| =    30.000000
 CELL_REF| Vector b [angstrom     0.000    30.000     0.000   |b| =    30.000000
 CELL_REF| Vector c [angstrom     0.000     0.000    30.000   |c| =    30.000000
 CELL_REF| Angle (b,c), alpha [degree]:                                90.000000
 CELL_REF| Angle (a,c), beta  [degree]:                                90.000000
 CELL_REF| Angle (a,b), gamma [degree]:                                90.000000
 CELL_REF| Numerically orthorhombic:                                         YES
 CELL_REF| Periodicity                                                      NONE

 *******************************************************************************
 *******************************************************************************
 **                                                                           **
 **     #####                         ##              ##                      **
 **    ##   ##            ##          ##              ##                      **
 **   ##     ##                       ##            ######                    **
 **   ##     ##  ##   ##  ##   #####  ##  ##   ####   ##    #####    #####    **
 **   ##     ##  ##   ##  ##  ##      ## ##   ##      ##   ##   ##  ##   ##   **
 **   ##  ## ##  ##   ##  ##  ##      ####     ###    ##   ######   ######    **
 **    ##  ###   ##   ##  ##  ##      ## ##      ##   ##   ##       ##        **
 **     #######   #####   ##   #####  ##  ##  ####    ##    #####   ##        **
 **           ##                                                    ##        **
 **                                                                           **
 **                                                ... make the atoms dance   **
 **                                                                           **
 **            Copyright (C) by CP2K developers group (2000-2025)             **
 **                      J. Chem. Phys. 152, 194103 (2020)                    **
 **                                                                           **
 *******************************************************************************

 DFT| Spin restricted Kohn-Sham (RKS) calculation                            RKS
 DFT| Multiplicity                                                             1
 DFT| Number of spin states                                                    1
 DFT| Charge                                                                   0
 DFT| Self-interaction correction (SIC)                                       NO
 DFT| Cutoffs: density                                              1.000000E-10
 DFT|          gradient                                             1.000000E-10
 DFT|          tau                                                  1.000000E-10
 DFT|          cutoff_smoothing_range                               0.000000E+00
 DFT| XC density smoothing                                                  NONE
 DFT| XC derivatives                                                          PW

 FUNCTIONAL| PBE:
 FUNCTIONAL| J.P.Perdew, K.Burke, M.Ernzerhof, Phys. Rev. Letter, vol. 77, n 18,
 FUNCTIONAL|  pp. 3865-3868, (1996)sx=0.750sc=1.000{spin unpolarized}           


 QS| Method:                                                                GAPW
 QS| Density plane wave grid type                        NON-SPHERICAL FULLSPACE
 QS| Number of grid levels:                                                    4
 QS| Density cutoff [a.u.]:                                                250.0
 QS| Multi grid cutoff [a.u.]: 1) grid level                               250.0
 QS|                           2) grid level                                83.3
 QS|                           3) grid level                                27.8
 QS|                           4) grid level                                 9.3
 QS| Grid level progression factor:                                          3.0
 QS| Relative density cutoff [a.u.]:                                        50.0
 QS| Interaction thresholds: eps_pgf_orb:                                1.0E-12
 QS|                         eps_filter_matrix:                          0.0E+00
 QS|                         eps_core_charge:                            1.0E-14
 QS|                         eps_rho_gspace:                             1.0E-12
 QS|                         eps_rho_rspace:                             1.0E-12
 QS|                         eps_gvg_rspace:                             1.0E-06
 QS|                         eps_ppl:                                    1.0E-02
 QS|                         eps_ppnl:                                   1.0E-08
 QS| GAPW|      One center basis from orbital basis primitives
 QS| GAPW|                   eps_fit:                                    1.0E-04
 QS| GAPW|                   eps_iso:                                    1.0E-12
 QS| GAPW|                   eps_svd:                                    1.0E-08
 QS| GAPW|                   eps_cpc:                                    1.0E-12
 QS| GAPW|   atom-r-grid: quadrature:                                     GC_LOG
 QS| GAPW|      atom-s-grid:  max l :                                          4
 QS| GAPW|      max_l_rho0 :                                                   2


 ATOMIC KIND INFORMATION

  1. Atomic kind: H                                     Number of atoms:       2

     Orbital Basis Set                                               aug-cc-pVTZ

       Number of orbital shell sets:                                           6
       Number of orbital shells:                                               9
       Number of primitive Cartesian functions:                               11
       Number of Cartesian basis functions:                                   25
       Number of spherical basis functions:                                   23
       Norm type:                                                              2

       Normalised Cartesian orbitals:

                        Set   Shell   Orbital            Exponent    Coefficient

                          1       1    1s                0.025260       0.045158

                          2       1    1px               0.102000       0.082166
                          2       1    1py               0.102000       0.082166
                          2       1    1pz               0.102000       0.082166

                          3       1    1s               33.870000       0.000000
                                                         5.095000       0.000000
                                                         1.159000       0.000000
                                                         0.325800       0.307343
                                                         0.102700       0.000000

                          3       2    2s               33.870000       0.060718
                                                         5.095000       0.109507
                                                         1.159000       0.161468
                                                         0.325800       0.154871
                                                         0.102700       0.049575

                          3       3    3s               33.870000       0.000000
                                                         5.095000       0.000000
                                                         1.159000       0.000000
                                                         0.325800       0.000000
                                                         0.102700       0.129297

                          4       1    1dx2              0.247000       0.142439
                          4       1    1dxy              0.247000       0.246712
                          4       1    1dxz              0.247000       0.246712
                          4       1    1dy2              0.247000       0.142439
                          4       1    1dyz              0.247000       0.246712
                          4       1    1dz2              0.247000       0.142439

                          5       1    1px               1.407000       2.184277
                                                         0.388000       0.000000
                          5       1    1py               1.407000       2.184277
                                                         0.388000       0.000000
                          5       1    1pz               1.407000       2.184277
                                                         0.388000       0.000000

                          5       2    2px               1.407000       0.000000
                                                         0.388000       0.436495
                          5       2    2py               1.407000       0.000000
                                                         0.388000       0.436495
                          5       2    2pz               1.407000       0.000000
                                                         0.388000       0.436495

                          6       1    1dx2              1.057000       1.813597
                          6       1    1dxy              1.057000       3.141241
                          6       1    1dxz              1.057000       3.141241
                          6       1    1dy2              1.057000       1.813597
                          6       1    1dyz              1.057000       3.141241
                          6       1    1dz2              1.057000       1.813597

     RI Auxiliary Basis Set                                    aug-cc-pVTZ-OPTRI

       Number of orbital shell sets:                                           9
       Number of orbital shells:                                               9
       Number of primitive Cartesian functions:                                9
       Number of Cartesian basis functions:                                   34
       Number of spherical basis functions:                                   29
       Norm type:                                                              2

       Normalised Cartesian orbitals:

                        Set   Shell   Orbital            Exponent    Coefficient

                          1       1    1s                0.207674       0.219254

                          2       1    1s                0.488825       0.416654

                          3       1    1dx2              0.617513       0.708011
                          3       1    1dxy              0.617513       1.226311
                          3       1    1dxz              0.617513       1.226311
                          3       1    1dy2              0.617513       0.708011
                          3       1    1dyz              0.617513       1.226311
                          3       1    1dz2              0.617513       0.708011

                          4       1    1px               0.702626       0.916949
                          4       1    1py               0.702626       0.916949
                          4       1    1pz               0.702626       0.916949

                          5       1    1s                1.747055       1.083029

                          6       1    1dx2              1.784914       4.536696
                          6       1    1dxy              1.784914       7.857789
                          6       1    1dxz              1.784914       7.857789
                          6       1    1dy2              1.784914       4.536696
                          6       1    1dyz              1.784914       7.857789
                          6       1    1dz2              1.784914       4.536696

                          7       1    1fx3              1.918725       6.378714
                          7       1    1fx2y             1.918725      14.263237
                          7       1    1fx2z             1.918725      14.263237
                          7       1    1fxy2             1.918725      14.263237
                          7       1    1fxyz             1.918725      24.704651
                          7       1    1fxz2             1.918725      14.263237
                          7       1    1fy3              1.918725       6.378714
                          7       1    1fy2z             1.918725      14.263237
                          7       1    1fyz2             1.918725      14.263237
                          7       1    1fz3              1.918725       6.378714

                          8       1    1px               2.114191       3.633878
                          8       1    1py               2.114191       3.633878
                          8       1    1pz               2.114191       3.633878

                          9       1    1px               4.837096      10.225180
                          9       1    1py               4.837096      10.225180
                          9       1    1pz               4.837096      10.225180

       Atomic covalent radius [Angstrom]:                                  0.320

       Atomic van der Waals radius [Angstrom]:                             1.090

     The atoms of this atomic kind are PAW atoms (GAPW):
       Hard Gaussian function radius:                                      1.200
       Rho0 radius:                                                        1.200
       Maximum GTO radius used for PAW projector construction:            24.566

     GAPW Soft Basis Set                                        aug-cc-pVTZ_soft

       Number of orbital shell sets:                                           6
       Number of orbital shells:                                               9
       Number of primitive Cartesian functions:                               10
       Number of Cartesian basis functions:                                   25
       Number of spherical basis functions:                                   23
       Norm type:                                                              2

       Normalised Cartesian orbitals:

                        Set   Shell   Orbital            Exponent    Coefficient

                          1       1    1s                0.025260       0.045158

                          2       1    1px               0.102000       0.082166
                          2       1    1py               0.102000       0.082166
                          2       1    1pz               0.102000       0.082166

                          3       1    1s                5.095000       0.000000
                                                         1.159000       0.000000
                                                         0.325800       0.307343
                                                         0.102700       0.000000

                          3       2    2s                5.095000       0.109507
                                                         1.159000       0.161468
                                                         0.325800       0.154871
                                                         0.102700       0.049575

                          3       3    3s                5.095000       0.000000
                                                         1.159000       0.000000
                                                         0.325800       0.000000
                                                         0.102700       0.129297

                          4       1    1dx2              0.247000       0.142439
                          4       1    1dxy              0.247000       0.246712
                          4       1    1dxz              0.247000       0.246712
                          4       1    1dy2              0.247000       0.142439
                          4       1    1dyz              0.247000       0.246712
                          4       1    1dz2              0.247000       0.142439

                          5       1    1px               1.407000       2.184277
                                                         0.388000       0.000000
                          5       1    1py               1.407000       2.184277
                                                         0.388000       0.000000
                          5       1    1pz               1.407000       2.184277
                                                         0.388000       0.000000

                          5       2    2px               1.407000       0.000000
                                                         0.388000       0.436495
                          5       2    2py               1.407000       0.000000
                                                         0.388000       0.436495
                          5       2    2pz               1.407000       0.000000
                                                         0.388000       0.436495

                          6       1    1dx2              1.057000       1.813597
                          6       1    1dxy              1.057000       3.141241
                          6       1    1dxz              1.057000       3.141241
                          6       1    1dy2              1.057000       1.813597
                          6       1    1dyz              1.057000       3.141241
                          6       1    1dz2              1.057000       1.813597

     AE Potential information for                                            ALL

       Description:                                       All-electron potential
                                          Krack, Parrinello, PCCP 2, 2105 (2000)

       Gaussian exponent of the core charge distribution:              12.500000
       Electronic configuration (s p d ...):                           1   0   0


 MOLECULE KIND INFORMATION


 All atoms are their own molecule, skipping detailed information


 TOTAL NUMBERS AND MAXIMUM NUMBERS

  Total number of            - Atomic kinds:                                   1
                             - Atoms:                                          2
                             - Shell sets:                                    12
                             - Shells:                                        18
                             - Primitive Cartesian functions:                 22
                             - Cartesian basis functions:                     50
                             - Spherical basis functions:                     46

  Maximum angular momentum of the orbital basis functions:                     2


 MODULE QUICKSTEP: ATOMIC COORDINATES IN ANGSTROM

   Atom Kind Element         X             Y             Z       Z(eff)     Mass
      1    1 H     1     15.370946     15.000000     15.000000   1.0000   1.0079
      2    1 H     1     14.629054     15.000000     15.000000   1.0000   1.0079



 SCF PARAMETERS         Density guess:                                    ATOMIC
                        --------------------------------------------------------
                        max_scf:                                             500
                        max_scf_history:                                       0
                        max_diis:                                              4
                        --------------------------------------------------------
                        eps_scf:                                        1.00E-06
                        eps_scf_history:                                0.00E+00
                        eps_diis:                                       1.00E-01
                        eps_eigval:                                     1.00E-05
                        --------------------------------------------------------
                        level_shift [a.u.]:                             0.000000
                        added MOs                                        45    0
                        --------------------------------------------------------
                        Mixing method:                            BROYDEN_MIXING
                                                charge density mixing in g-space
                        --------------------------------------------------------
                        No outer SCF

 PW_GRID| Information for grid number                                          1
 PW_GRID| Grid distributed over                                    24 processors
 PW_GRID| Real space group dimensions                                    24    1
 PW_GRID| the grid is blocked:                                                NO
 PW_GRID| Cutoff [a.u.]                                                    250.0
 PW_GRID| spherical cutoff:                                                   NO
 PW_GRID|   Bounds   1           -202     202                Points:         405
 PW_GRID|   Bounds   2           -202     202                Points:         405
 PW_GRID|   Bounds   3           -202     202                Points:         405
 PW_GRID| Volume element (a.u.^3)  0.2743E-02     Volume (a.u.^3)    182205.0337
 PW_GRID| Grid span                                                    FULLSPACE
 PW_GRID|   Distribution                         Average         Max         Min
 PW_GRID|   G-Vectors                          2767921.9     2768175     2767770
 PW_GRID|   G-Rays                                6834.4        6835        6834
 PW_GRID|   Real Space Points                  2767921.9     2788425     2624400

 PW_GRID| Information for grid number                                          2
 PW_GRID| Number of the reference grid                                         1
 PW_GRID| Grid distributed over                                    24 processors
 PW_GRID| Real space group dimensions                                    24    1
 PW_GRID| the grid is blocked:                                                NO
 PW_GRID| Cutoff [a.u.]                                                     83.3
 PW_GRID| spherical cutoff:                                                   NO
 PW_GRID|   Bounds   1           -120     119                Points:         240
 PW_GRID|   Bounds   2           -120     119                Points:         240
 PW_GRID|   Bounds   3           -120     119                Points:         240
 PW_GRID| Volume element (a.u.^3)  0.1318E-01     Volume (a.u.^3)    182205.0337
 PW_GRID| Grid span                                                    FULLSPACE
 PW_GRID|   Distribution                         Average         Max         Min
 PW_GRID|   G-Vectors                           576000.0      576240      575760
 PW_GRID|   G-Rays                                2400.0        2401        2399
 PW_GRID|   Real Space Points                   576000.0      576000      576000

 PW_GRID| Information for grid number                                          3
 PW_GRID| Number of the reference grid                                         1
 PW_GRID| Grid distributed over                                    24 processors
 PW_GRID| Real space group dimensions                                    24    1
 PW_GRID| the grid is blocked:                                                NO
 PW_GRID| Cutoff [a.u.]                                                     27.8
 PW_GRID| spherical cutoff:                                                   NO
 PW_GRID|   Bounds   1            -67      67                Points:         135
 PW_GRID|   Bounds   2            -67      67                Points:         135
 PW_GRID|   Bounds   3            -67      67                Points:         135
 PW_GRID| Volume element (a.u.^3)  0.7406E-01     Volume (a.u.^3)    182205.0337
 PW_GRID| Grid span                                                    FULLSPACE
 PW_GRID|   Distribution                         Average         Max         Min
 PW_GRID|   G-Vectors                           102515.6      102735      102330
 PW_GRID|   G-Rays                                 759.4         761         758
 PW_GRID|   Real Space Points                   102515.6      109350       91125

 PW_GRID| Information for grid number                                          4
 PW_GRID| Number of the reference grid                                         1
 PW_GRID| Grid distributed over                                    24 processors
 PW_GRID| Real space group dimensions                                    24    1
 PW_GRID| the grid is blocked:                                                NO
 PW_GRID| Cutoff [a.u.]                                                      9.3
 PW_GRID| spherical cutoff:                                                   NO
 PW_GRID|   Bounds   1            -40      39                Points:          80
 PW_GRID|   Bounds   2            -40      39                Points:          80
 PW_GRID|   Bounds   3            -40      39                Points:          80
 PW_GRID| Volume element (a.u.^3)  0.3559         Volume (a.u.^3)    182205.0337
 PW_GRID| Grid span                                                    FULLSPACE
 PW_GRID|   Distribution                         Average         Max         Min
 PW_GRID|   G-Vectors                            21333.3       21360       21280
 PW_GRID|   G-Rays                                 266.7         267         266
 PW_GRID|   Real Space Points                    21333.3       25600       19200

 POISSON| Solver                                                         WAVELET
 POISSON| Wavelet| Scaling function                                           40
 POISSON| Periodicity                                                       NONE

 RS_GRID| Information for grid number                                          1
 RS_GRID|   Bounds   1           -202     202                Points:         405
 RS_GRID|   Bounds   2           -202     202                Points:         405
 RS_GRID|   Bounds   3           -202     202                Points:         405
 RS_GRID| Real space distribution over                                  4 groups
 RS_GRID| Real space distribution along direction                              2
 RS_GRID| Border size                                                         32
 RS_GRID| Real space distribution over                                  6 groups
 RS_GRID| Real space distribution along direction                              3
 RS_GRID| Border size                                                         32
 RS_GRID|   Distribution                         Average         Max         Min
 RS_GRID|   Planes                                 165.2         166         165
 RS_GRID|   Distribution                         Average         Max         Min
 RS_GRID|   Planes                                 131.5         132         131

 RS_GRID| Information for grid number                                          2
 RS_GRID|   Bounds   1           -120     119                Points:         240
 RS_GRID|   Bounds   2           -120     119                Points:         240
 RS_GRID|   Bounds   3           -120     119                Points:         240
 RS_GRID| Real space distribution over                                  4 groups
 RS_GRID| Real space distribution along direction                              2
 RS_GRID| Border size                                                         35
 RS_GRID| Real space distribution over                                  6 groups
 RS_GRID| Real space distribution along direction                              3
 RS_GRID| Border size                                                         35
 RS_GRID|   Distribution                         Average         Max         Min
 RS_GRID|   Planes                                 130.0         130         130
 RS_GRID|   Distribution                         Average         Max         Min
 RS_GRID|   Planes                                 110.0         110         110

 RS_GRID| Information for grid number                                          3
 RS_GRID|   Bounds   1            -67      67                Points:         135
 RS_GRID|   Bounds   2            -67      67                Points:         135
 RS_GRID|   Bounds   3            -67      67                Points:         135
 RS_GRID| Real space fully replicated
 RS_GRID| Group size                                                           1

 RS_GRID| Information for grid number                                          4
 RS_GRID|   Bounds   1            -40      39                Points:          80
 RS_GRID|   Bounds   2            -40      39                Points:          80
 RS_GRID|   Bounds   3            -40      39                Points:          80
 RS_GRID| Real space fully replicated
 RS_GRID| Group size                                                           1

  HFX_INFO| Replica ID:                                                        1
  HFX_INFO| FRACTION:                                               0.2500000000
  HFX_INFO| Interaction Potential:                                       COULOMB
  HFX_INFO| EPS_SCHWARZ:                                                 1.0E-10
  HFX_INFO| EPS_SCHWARZ_FORCES                                           1.0E-08
  HFX_INFO| EPS_STORAGE_SCALING:                                         1.0E+00
  HFX_INFO| NBINS:                                                            64
  HFX_INFO| BLOCK_SIZE:                                                        1
  HFX_INFO| Number of periodic shells considered:                           NONE
  HFX_INFO| Number of periodic cells considered:                            NONE

 
 RI-RPA| using GPW style
 

 OVERLAP MATRIX CONDITION NUMBER
 1-Norm Condition Number (Estimate)
   CN : |A|*|A^-1|:  7.829E+000 *  2.465E+004   = 1.929E+005  Log(1-CN):  5.2854
 1-Norm and 2-Norm Condition Numbers using Diagonalization
   CN : |A|*|A^-1|:  7.829E+000 *  2.465E+004   = 1.929E+005  Log(1-CN):  5.2854
   CN : max/min ev:  6.070E+000 /  5.454E-005   = 1.113E+005  Log(2-CN):  5.0464

 Number of electrons:                                                          2
 Number of occupied orbitals:                                                  1
 Number of molecular orbitals:                                                46

 Number of orbital functions:                                                 46
 Number of independent orbital functions:                                     46

 Extrapolation method: initial_guess

 Atomic guess: The first density matrix is obtained in terms of atomic orbitals
               and electronic configurations assigned to each atomic kind

 Guess for atomic kind: H

 Electronic structure
    Total number of core electrons                                          0.00
    Total number of valence electrons                                       1.00
    Total number of electrons                                               1.00
    Multiplicity                                                   not specified
    S      1.00


 *******************************************************************************
                  Iteration          Convergence                     Energy [au]
 *******************************************************************************
                          1        0.899984E-02                  -0.445273676984
                          2        0.831993E-03                  -0.445370735705
                          3        0.104223E-03                  -0.445373223017
                          4        0.123824E-06                  -0.445373248884

 Energy components [Hartree]           Total Energy ::           -0.445373248884
                                        Band Energy ::           -0.233121027105
                                     Kinetic Energy ::            0.424055116706
                                   Potential Energy ::           -0.869428365590
                                      Virial (-V/T) ::            2.050272078646
                                        Core Energy ::           -0.495782636313
                                          XC Energy ::           -0.232278681357
                                     Coulomb Energy ::            0.282688068786

 Orbital energies  State     L     Occupation   Energy[a.u.]          Energy[eV]

                       1     0          1.000      -0.233121           -6.343546


 Total Electron Density at R=0:                                         0.244200
 Re-scaling the density matrix to get the right number of electrons
                  # Electrons              Trace(P)               Scaling factor
                            2                 2.000                        1.000


 SCF WAVEFUNCTION OPTIMIZATION

  Step     Update method      Time    Convergence         Total energy    Change
  ------------------------------------------------------------------------------

  HFX_MEM_INFO| Est. max. program size before HFX [MiB]:                    2127
  HFX_MEM_INFO| Number of cart. primitive ERI's calculated:              3185727
  HFX_MEM_INFO| Number of sph. ERI's calculated:                         1679046
  HFX_MEM_INFO| Number of sph. ERI's stored in-core:                     1679046
  HFX_MEM_INFO| Number of sph. ERI's stored on disk:                           0
  HFX_MEM_INFO| Number of sph. ERI's calculated on the fly:                    0
  HFX_MEM_INFO| Total memory consumption ERI's RAM [MiB]:                      7
  HFX_MEM_INFO| Whereof max-vals [MiB]:                                        1
  HFX_MEM_INFO| Total compression factor ERI's RAM:                         2.02
  HFX_MEM_INFO| Total memory consumption ERI's disk [MiB]:                     0
  HFX_MEM_INFO| Total compression factor ERI's disk:                        0.00
  HFX_MEM_INFO| Size of density/Fock matrix [MiB]:                             0
  HFX_MEM_INFO| Size of buffers [MiB]:                                         0
  HFX_MEM_INFO| Est. max. program size after HFX  [MiB]:                    2635

     1 NoMix/Diag. 0.10E+00    6.2     1.46399725        -0.9445962885 -9.45E-01
     2 Broy./Diag. 0.10E+00    4.7     0.14031629        -0.7507488667  1.94E-01
     3 Broy./Diag. 0.10E+00    5.0     0.11409059        -0.3502814911  4.00E-01
     4 Broy./Diag. 0.10E+00    5.1     0.01768532        -0.4661763632 -1.16E-01
     5 Broy./Diag. 0.10E+00    5.3     0.03064437        -0.5551432208 -8.90E-02
     6 Broy./Diag. 0.10E+00    5.6     0.01813002        -0.5916609921 -3.65E-02
     7 Broy./Diag. 0.10E+00    5.2     0.09992378        -0.7605357602 -1.69E-01
     8 Broy./Diag. 0.10E+00    5.3     0.04981451        -0.8582846169 -9.77E-02
     9 Broy./Diag. 0.10E+00    5.3     0.01899396        -0.8986108463 -4.03E-02
    10 Broy./Diag. 0.10E+00    5.4     0.02676459        -0.9464662046 -4.79E-02
    11 Broy./Diag. 0.10E+00    5.3     0.10102316        -1.1061105675 -1.60E-01
    12 Broy./Diag. 0.10E+00    5.3     0.01769433        -1.1551600778 -4.90E-02
    13 Broy./Diag. 0.10E+00    5.3     0.00119172        -1.1583932485 -3.23E-03
    14 Broy./Diag. 0.10E+00    5.5     0.00667015        -1.1676928782 -9.30E-03
    15 Broy./Diag. 0.10E+00    5.3     0.00503775        -1.1709919261 -3.30E-03
    16 Broy./Diag. 0.10E+00    5.5     0.00520135        -1.1644429689  6.55E-03
    17 Broy./Diag. 0.10E+00    5.6     0.00240414        -1.1601745390  4.27E-03
    18 Broy./Diag. 0.10E+00    5.5     0.00381561        -1.1634502803 -3.28E-03
    19 Broy./Diag. 0.10E+00    5.6     0.00164671        -1.1663536960 -2.90E-03
    20 Broy./Diag. 0.10E+00    5.5     0.00141525        -1.1676800011 -1.33E-03
    21 Broy./Diag. 0.10E+00    5.5     0.00174887        -1.1701530910 -2.47E-03
    22 Broy./Diag. 0.10E+00    5.5     0.00101869        -1.1691375847  1.02E-03
    23 Broy./Diag. 0.10E+00    5.6     0.00036884        -1.1685376502  6.00E-04
    24 Broy./Diag. 0.10E+00    5.4     0.00027123        -1.1686904804 -1.53E-04
    25 Broy./Diag. 0.10E+00    5.4     0.00034962        -1.1685258542  1.65E-04
    26 Broy./Diag. 0.10E+00    5.4     0.00021348        -1.1683282716  1.98E-04
    27 Broy./Diag. 0.10E+00    5.4     0.00009119        -1.1684380217 -1.10E-04
    28 Broy./Diag. 0.10E+00    5.3     0.00007645        -1.1685792993 -1.41E-04
    29 Broy./Diag. 0.10E+00    5.3     0.00014679        -1.1685863587 -7.06E-06
    30 Broy./Diag. 0.10E+00    5.4     0.00007138        -1.1686510335 -6.47E-05
    31 Broy./Diag. 0.10E+00    5.5     0.00008159        -1.1686581106 -7.08E-06
    32 Broy./Diag. 0.10E+00    5.6     0.00003700        -1.1686599830 -1.87E-06
    33 Broy./Diag. 0.10E+00    5.7     0.00002391        -1.1686473765  1.26E-05
    34 Broy./Diag. 0.10E+00    5.5     0.00002438        -1.1686470043  3.72E-07
    35 Broy./Diag. 0.10E+00    5.6     0.00003660        -1.1685871545  5.98E-05
    36 Broy./Diag. 0.10E+00    5.6     0.00002536        -1.1685520097  3.51E-05
    37 Broy./Diag. 0.10E+00    5.7     0.00008282        -1.1685557302 -3.72E-06
    38 Broy./Diag. 0.10E+00    5.5     0.00002401        -1.1685225756  3.32E-05
    39 Broy./Diag. 0.10E+00    5.5     0.00001057        -1.1684981860  2.44E-05
    40 Broy./Diag. 0.10E+00    5.4     0.00000975        -1.1685041380 -5.95E-06
    41 Broy./Diag. 0.10E+00    5.4     0.00002864        -1.1685038856  2.52E-07
    42 Broy./Diag. 0.10E+00    5.3     0.00002930        -1.1684914014  1.25E-05
    43 Broy./Diag. 0.10E+00    5.3     0.00000366        -1.1684972960 -5.89E-06
    44 Broy./Diag. 0.10E+00    5.3     0.00000177        -1.1684977395 -4.43E-07
    45 Broy./Diag. 0.10E+00    5.3     0.00000676        -1.1684948106  2.93E-06
    46 Broy./Diag. 0.10E+00    5.3     0.00000183        -1.1684958942 -1.08E-06
    47 Broy./Diag. 0.10E+00    5.4     0.00000896        -1.1684965691 -6.75E-07
    48 Broy./Diag. 0.10E+00    5.6     0.00000314        -1.1684970518 -4.83E-07
    49 Broy./Diag. 0.10E+00    5.6     0.00000633        -1.1684956073  1.44E-06
    50 Broy./Diag. 0.10E+00    5.6     0.00000123        -1.1684964674 -8.60E-07
    51 Broy./Diag. 0.10E+00    5.6     0.00000136        -1.1684970910 -6.24E-07
    52 Broy./Diag. 0.10E+00    5.6     0.00000072        -1.1684979928 -9.02E-07

  *** SCF run converged in    52 steps ***


  Electronic density on regular grids:         -1.9956659144        0.0043340856
  Core density on regular grids:                2.0000000000       -0.0000000000
  Hard and soft densities (Lebedev):           -6.5263067997       -6.5219728348
  Total Rho_soft + Rho1_hard - Rho1_soft       -1.9999998793
  Total charge density (r-space):               0.0000001207
  Total Rho_soft + Rho0_soft (g-space):         0.0000001144

  Overlap energy of the core charge distribution:               0.00000051136925
  Self energy of the core charge distribution:                 -2.82094791773878
  Core Hamiltonian energy:                                      0.97959717681732
  Hartree energy:                                               1.09144300804150
  Exchange-correlation energy:                                 -0.52687554415954
  Hartree-Fock Exchange energy:                                -0.16453555949156

  GAPW| Exc from hard and soft atomic rho1:                    -0.00254272767924
  GAPW| local Eh = 1 center integrals:                          0.27536306005043

  Total energy:                                                -1.16849799279063

 !-----------------------------------------------------------------------------!
                     Mulliken Population Analysis

 #  Atom  Element  Kind  Atomic population                           Net charge
       1     H        1          1.000000                             -0.000000
       2     H        1          1.000000                              0.000000
 # Total charge                              2.000000                  0.000000

 !-----------------------------------------------------------------------------!

 !-----------------------------------------------------------------------------!
                           Hirshfeld Charges

  #Atom  Element  Kind  Ref Charge     Population                    Net charge
      1       H      1       1.000          0.933                         0.067
      2       H      1       1.000          0.933                         0.067

  Total Charge                                                            0.135
 !-----------------------------------------------------------------------------!


 RI-RPA section
 --------------

  Used number of processes per group:                                          1
  Maximum allowed memory usage per MPI process:                      1024.00 MiB
  RI_INFO| Cholesky decomposition group size:                                  2
  RI_INFO| Number of groups for auxiliary basis functions                     24

  RI_INFO| RI metric:                                                    COULOMB
  RI_INFO| Number of auxiliary basis functions:                               58
  GENERAL_INFO| Number of basis functions:                                    46
  GENERAL_INFO| Number of occupied orbitals:                                   1
  GENERAL_INFO| Number of virtual orbitals:                                   45
  RI_INFO| Total memory for (ia|K) integrals:                           0.02 MiB
  RI_INFO| Total memory for G0W0-(nm|K) integrals:                      0.94 MiB
  RI_INFO| Total memory for (ij|K) integrals:                           0.00 MiB
  RI_INFO| Total memory for (ab|K) integrals:                           0.90 MiB
  RI_INFO| Group size for frequency integration:                              24
  INTEG_INFO| Clenshaw-Curtius quadrature
  INTEG_INFO| Number of integration points:                                  100
  INTEG_INFO| Number of integration points per RPA group:                    100
  MATRIX_INFO| Number row processes:                                           6
  MATRIX_INFO| Number column processes:                                        4
  MATRIX_INFO| Row block size:                                                 4
  MATRIX_INFO| Column block size:                                              5
  INTEG_INFO| Scaling parameter:                                         0.20000
  INTEG_INFO| Started with Integration point   1 of 100
  INTEG_INFO| Started with Integration point   2 of 100
  INTEG_INFO| Started with Integration point   3 of 100
  INTEG_INFO| Started with Integration point   4 of 100
  INTEG_INFO| Started with Integration point   5 of 100
  INTEG_INFO| Started with Integration point   6 of 100
  INTEG_INFO| Started with Integration point   7 of 100
  INTEG_INFO| Started with Integration point   8 of 100
  INTEG_INFO| Started with Integration point   9 of 100
  INTEG_INFO| Started with Integration point  10 of 100
  INTEG_INFO| Started with Integration point  11 of 100
  INTEG_INFO| Started with Integration point  12 of 100
  INTEG_INFO| Started with Integration point  13 of 100
  INTEG_INFO| Started with Integration point  14 of 100
  INTEG_INFO| Started with Integration point  15 of 100
  INTEG_INFO| Started with Integration point  16 of 100
  INTEG_INFO| Started with Integration point  17 of 100
  INTEG_INFO| Started with Integration point  18 of 100
  INTEG_INFO| Started with Integration point  19 of 100
  INTEG_INFO| Started with Integration point  20 of 100
  INTEG_INFO| Started with Integration point  21 of 100
  INTEG_INFO| Started with Integration point  22 of 100
  INTEG_INFO| Started with Integration point  23 of 100
  INTEG_INFO| Started with Integration point  24 of 100
  INTEG_INFO| Started with Integration point  25 of 100
  INTEG_INFO| Started with Integration point  26 of 100
  INTEG_INFO| Started with Integration point  27 of 100
  INTEG_INFO| Started with Integration point  28 of 100
  INTEG_INFO| Started with Integration point  29 of 100
  INTEG_INFO| Started with Integration point  30 of 100
  INTEG_INFO| Started with Integration point  31 of 100
  INTEG_INFO| Started with Integration point  32 of 100
  INTEG_INFO| Started with Integration point  33 of 100
  INTEG_INFO| Started with Integration point  34 of 100
  INTEG_INFO| Started with Integration point  35 of 100
  INTEG_INFO| Started with Integration point  36 of 100
  INTEG_INFO| Started with Integration point  37 of 100
  INTEG_INFO| Started with Integration point  38 of 100
  INTEG_INFO| Started with Integration point  39 of 100
  INTEG_INFO| Started with Integration point  40 of 100
  INTEG_INFO| Started with Integration point  41 of 100
  INTEG_INFO| Started with Integration point  42 of 100
  INTEG_INFO| Started with Integration point  43 of 100
  INTEG_INFO| Started with Integration point  44 of 100
  INTEG_INFO| Started with Integration point  45 of 100
  INTEG_INFO| Started with Integration point  46 of 100
  INTEG_INFO| Started with Integration point  47 of 100
  INTEG_INFO| Started with Integration point  48 of 100
  INTEG_INFO| Started with Integration point  49 of 100
  INTEG_INFO| Started with Integration point  50 of 100
  INTEG_INFO| Started with Integration point  51 of 100
  INTEG_INFO| Started with Integration point  52 of 100
  INTEG_INFO| Started with Integration point  53 of 100
  INTEG_INFO| Started with Integration point  54 of 100
  INTEG_INFO| Started with Integration point  55 of 100
  INTEG_INFO| Started with Integration point  56 of 100
  INTEG_INFO| Started with Integration point  57 of 100
  INTEG_INFO| Started with Integration point  58 of 100
  INTEG_INFO| Started with Integration point  59 of 100
  INTEG_INFO| Started with Integration point  60 of 100
  INTEG_INFO| Started with Integration point  61 of 100
  INTEG_INFO| Started with Integration point  62 of 100
  INTEG_INFO| Started with Integration point  63 of 100
  INTEG_INFO| Started with Integration point  64 of 100
  INTEG_INFO| Started with Integration point  65 of 100
  INTEG_INFO| Started with Integration point  66 of 100
  INTEG_INFO| Started with Integration point  67 of 100
  INTEG_INFO| Started with Integration point  68 of 100
  INTEG_INFO| Started with Integration point  69 of 100
  INTEG_INFO| Started with Integration point  70 of 100
  INTEG_INFO| Started with Integration point  71 of 100
  INTEG_INFO| Started with Integration point  72 of 100
  INTEG_INFO| Started with Integration point  73 of 100
  INTEG_INFO| Started with Integration point  74 of 100
  INTEG_INFO| Started with Integration point  75 of 100
  INTEG_INFO| Started with Integration point  76 of 100
  INTEG_INFO| Started with Integration point  77 of 100
  INTEG_INFO| Started with Integration point  78 of 100
  INTEG_INFO| Started with Integration point  79 of 100
  INTEG_INFO| Started with Integration point  80 of 100
  INTEG_INFO| Started with Integration point  81 of 100
  INTEG_INFO| Started with Integration point  82 of 100
  INTEG_INFO| Started with Integration point  83 of 100
  INTEG_INFO| Started with Integration point  84 of 100
  INTEG_INFO| Started with Integration point  85 of 100
  INTEG_INFO| Started with Integration point  86 of 100
  INTEG_INFO| Started with Integration point  87 of 100
  INTEG_INFO| Started with Integration point  88 of 100
  INTEG_INFO| Started with Integration point  89 of 100
  INTEG_INFO| Started with Integration point  90 of 100
  INTEG_INFO| Started with Integration point  91 of 100
  INTEG_INFO| Started with Integration point  92 of 100
  INTEG_INFO| Started with Integration point  93 of 100
  INTEG_INFO| Started with Integration point  94 of 100
  INTEG_INFO| Started with Integration point  95 of 100
  INTEG_INFO| Started with Integration point  96 of 100
  INTEG_INFO| Started with Integration point  97 of 100
  INTEG_INFO| Started with Integration point  98 of 100
  INTEG_INFO| Started with Integration point  99 of 100
  INTEG_INFO| Started with Integration point 100 of 100
  PERFORMANCE| Average DGEMM flop rate (Gflops / MPI rank):                 0.01
  
  
  ******************************************************************************
  **                                                                          **
  **                        GW QUASIPARTICLE ENERGIES                         **
  **                                                                          **
  ******************************************************************************
   
   
  The GW quasiparticle energies are calculated according to: 
   
                      E_GW = E_SCF + Sigc(E_GW) + Sigx - vxc 
   
  Upper equation is solved self-consistently for E_GW, see Eq. (12) in J. Phys.
  Chem. Lett. 9, 306 (2018), doi: 10.1021/acs.jpclett.7b02740
  
  
  ------------
  G0W0 results
  ------------
   
  Molecular orbital   E_SCF (eV)       Sigc (eV)   Sigx-vxc (eV)       E_GW (eV)
     1 ( occ )          -61.0499         -0.1941         -3.0142        -64.2583
     2 ( vir )            0.0008         -0.0541          1.1599          1.1066
     3 ( vir )            0.0143         -0.1272          2.8955          2.7826
     4 ( vir )            0.0210         -0.0295          0.6093          0.6008
     5 ( vir )            0.2408         -0.0336          1.3497          1.5569
     6 ( vir )            0.2408         -0.0336          1.3497          1.5569
     7 ( vir )            0.3180         -0.0801          1.4934          1.7313
     8 ( vir )            0.5709         -0.2659          1.8207          2.1257
     9 ( vir )            0.6840         -1.3366          8.3311          7.6785
    10 ( vir )            0.8792         -2.4374         11.5474          9.9892
    11 ( vir )            1.4081         -0.2245          3.7223          4.9059
    12 ( vir )            1.4081         -0.2245          3.7223          4.9059
    13 ( vir )            1.8775         -0.1831          2.0671          3.7615
    14 ( vir )            3.7826         -0.1854          2.2422          5.8394
    15 ( vir )            5.1003         -0.0863          2.2217          7.2357
    16 ( vir )            5.1003         -0.0863          2.2217          7.2357
    17 ( vir )            5.1278         -0.1040          2.7886          7.8124
    18 ( vir )            5.1278         -0.1040          2.7886          7.8124
    19 ( vir )            7.1076         -0.6702          4.4460         10.8835
    20 ( vir )            7.2707         -0.2985          3.2215         10.1938
    21 ( vir )            7.9264         -0.1571          2.6516         10.4208
    22 ( vir )            7.9264         -0.1571          2.6516         10.4208
    23 ( vir )           12.1480         -0.5734          4.2849         15.8594
    24 ( vir )           19.0598         -0.4929          5.3888         23.9557
    25 ( vir )           19.0598         -0.4929          5.3888         23.9557
    26 ( vir )           21.7705         -0.4402          3.5694         24.8997
    27 ( vir )           24.0433         -0.4967          4.5540         28.1005
    28 ( vir )           24.0433         -0.4966          4.5540         28.1006
    29 ( vir )           26.8995         -1.6889          7.1682         32.3788
    30 ( vir )           28.3245         -0.2001          3.1852         31.3096
    31 ( vir )           28.3245         -0.2001          3.1852         31.3096
    32 ( vir )           31.1829         -0.8378          6.2925         36.6377
    33 ( vir )           31.1829         -0.8376          6.2925         36.6379
    34 ( vir )           67.4270         -1.0671          7.5765         73.9365
    35 ( vir )           67.4270         -1.0651          7.5765         73.9384
    36 ( vir )           70.5947         -2.2026          8.1180         76.5100
    37 ( vir )           70.5947         -1.7032          8.1180         77.0095
    38 ( vir )           71.1053         -4.8630          6.9969         73.2392
    39 ( vir )           91.3629         -2.1147          8.4014         97.6495
    40 ( vir )           91.3629         -2.7995          8.4014         96.9647
    41 ( vir )          100.5135         -2.5186          8.2916        106.2865
    42 ( vir )          109.8805         -2.6461         10.3748        117.6092
    43 ( vir )          111.2599         -1.2202          7.7105        117.7503
    44 ( vir )          111.2599         -1.4454          7.7105        117.5251
    45 ( vir )          137.9680         -1.9763          8.8774        144.8691
    46 ( vir )          137.9680         -1.8793          8.8774        144.9662
   
  G0W0 HOMO-LUMO gap (eV)                                                64.8590
  
  ------------------------------------------------------------------------------
  
 *******************************************************************************
 **                                                                           **
 **           Bethe Salpeter equation (BSE) for excitation energies           **
 **               solved without Tamm-Dancoff approximation (TDA)             **
 **                                                                           **
 *******************************************************************************
  
 BSE| No cutoff given for occupied orbitals
 BSE| No cutoff given for empty orbitals
 BSE| First occupied index                                                     1
 BSE| Last empty index (not MO index!)                                        45
 BSE| Energy of first occupied index [eV]                                -64.258
 BSE| Energy of last empty index [eV]                                    144.966
 BSE| Energy difference of first occupied index to HOMO [eV]              -0.000
 BSE| Energy difference of last empty index to LUMO [eV]                 143.860
 BSE| Number of GW-corrected occupied MOs                                      1
 BSE| Number of GW-corrected empty MOs                                        45
 BSE|
 BSE| No truncation of BSE matrices applied
 BSE|
 BSE| Total peak memory estimate from BSE [GB]                         1.509E-04
 BSE| Peak memory estimate per MPI rank from BSE [GB]                      0.000
 BSE|
 BSE| Diagonalizing aux. matrix with size of A. This will take around 0.E+00 s.
 BSE| Diagonalizing C. This will take around 0.E+00 s.
 BSE|
 BSE|
 BSE| **************************************************************************
 BSE| *      Full ("ABBA") Bethe Salpeter equation (BSE) (i.e. without TDA)    *
 BSE| **************************************************************************
 BSE|
 BSE| The excitations are calculated by diagonalizing the BSE without the TDA:
 BSE|
 BSE|                |A B| |X^n|       |1  0| |X^n|
 BSE|                |B A| |Y^n| = ^n |0 -1| |Y^n|
 BSE|
 BSE| i.e. in index notation:
 BSE|
 BSE|   sum_jb ( A_ia,jb   X_jb^n + B_ia,jb   Y_jb^n ) = ^n X_ia^n
 BSE| - sum_jb ( B_ia,jb   X_jb^n + A_ia,jb   Y_jb^n ) = ^n Y_ia^n
 BSE|
 BSE|
 BSE| i,j:       occupied molecular orbitals, i.e. state in          [   1,   1]
 BSE| a,b:       unoccupied molecular orbitals, i.e. state in        [   2,  46]
 BSE| n:         Excitation index
 BSE|
 BSE| A_ia,jb = (_a-_i) _ij _ab +  * v_ia,jb - W_ij,ab
 BSE| B_ia,jb =  * v_ia,jb - W_ib,aj
 BSE|
 BSE| prelim Ref.: Eqs. (24-27),(30),(35)
 BSE| in PRB 92,045209 (2015); http://dx.doi.org/10.1103/PhysRevB.92.045209 .
 BSE|
 BSE| The BSE is solved for ^n and X_ia^n as a hermitian problem, e.g. Eq.(42)
 BSE| in PRB 92,045209 (2015); http://dx.doi.org/10.1103/PhysRevB.92.045209 .
 BSE|
 BSE| _...:                 GW quasiparticle energy
 BSE| _...:                 Kronecker delta
 BSE| :                     spin-dependent factor
 BSE| v_...:                 Electron-hole exchange interaction
 BSE| W_... = 1/ v_...:     Direct interaction screened by 
 BSE|                        dielectric function (=0)
 BSE|
 BSE|
 BSE| The spin-dependent factor is for the requested Singlet is  = 2.0
 BSE|
 BSE| Excitation energies from solving the BSE without the TDA:
 BSE|
 BSE|     Excitation n   Spin Config       TDA/ABBA   Excitation energy ^n (eV)
 BSE|                1       Singlet         -ABBA-                      56.8286
 BSE|                2       Singlet         -ABBA-                      57.5124
 BSE|                3       Singlet         -ABBA-                      58.4532
 BSE|                4       Singlet         -ABBA-                      58.4532
 BSE|                5       Singlet         -ABBA-                      58.5930
 BSE|                6       Singlet         -ABBA-                      59.6867
 BSE|                7       Singlet         -ABBA-                      59.9765
 BSE|                8       Singlet         -ABBA-                      61.0137
 BSE|                9       Singlet         -ABBA-                      61.0137
 BSE|               10       Singlet         -ABBA-                      61.4834
 BSE|               11       Singlet         -ABBA-                      61.9173
 BSE|               12       Singlet         -ABBA-                      63.3111
 BSE|               13       Singlet         -ABBA-                      63.5135
 BSE|               14       Singlet         -ABBA-                      63.5135
 BSE|               15       Singlet         -ABBA-                      63.6297
 BSE|               16       Singlet         -ABBA-                      63.6297
 BSE|               17       Singlet         -ABBA-                      63.9017
 BSE|               18       Singlet         -ABBA-                      66.5720
 BSE|               19       Singlet         -ABBA-                      66.8175
 BSE|               20       Singlet         -ABBA-                      66.8175
 BSE|               21       Singlet         -ABBA-                      67.1761
 BSE|               22       Singlet         -ABBA-                      70.3109
 BSE|               23       Singlet         -ABBA-                      76.8205
 BSE|               24       Singlet         -ABBA-                      76.8205
 BSE|               25       Singlet         -ABBA-                      79.9304
 BSE|
 BSE| Single-particle transitions are built up by (de-)excitations,
 BSE| which we denote by
 BSE|
 BSE|              =>        for excitations, i.e. entries of X_ia^n,
 BSE|              <=        for deexcitations, i.e. entries of Y_ia^n.
 BSE|
 BSE| The following single-particle transitions have significant contributions,
 BSE| i.e. |X_ia^n| > 0.100 or |Y_ia^n| > 0.100, respectively :
 BSE|         -- Quick reminder: HOMO i =    1 and LUMO a =    2 --
 BSE|
 BSE| Excitation n           i =>/<=     a      TDA/ABBA       |X_ia^n|/|Y_ia^n|
 BSE|
 BSE|            1           1    =>     7        -ABBA-                  0.2020
 BSE|            1           1    =>     8        -ABBA-                  0.4178
 BSE|            1           1    =>     9        -ABBA-                  0.4547
 BSE|            1           1    =>    13        -ABBA-                  0.2777
 BSE|
 BSE|            2           1    =>     3        -ABBA-                  0.5864
 BSE|            2           1    =>     4        -ABBA-                  0.3533
 BSE|            2           1    =>    10        -ABBA-                  0.1005
 BSE|            2           1    =>    20        -ABBA-                  0.1073
 BSE|
 BSE|            3           1    =>     5        -ABBA-                  0.3404
 BSE|            3           1    =>     6        -ABBA-                  0.3396
 BSE|            3           1    =>    11        -ABBA-                  0.4231
 BSE|            3           1    =>    12        -ABBA-                  0.2966
 BSE|
 BSE|            4           1    =>     5        -ABBA-                  0.3396
 BSE|            4           1    =>     6        -ABBA-                  0.3404
 BSE|            4           1    =>    11        -ABBA-                  0.2966
 BSE|            4           1    =>    12        -ABBA-                  0.4231
 BSE|
 BSE|            5           1    =>     2        -ABBA-                  0.4320
 BSE|            5           1    =>     3        -ABBA-                  0.1289
 BSE|            5           1    =>     4        -ABBA-                  0.2002
 BSE|            5           1    =>    10        -ABBA-                  0.4160
 BSE|            5           1    =>    14        -ABBA-                  0.2823
 BSE|
 BSE|            6           1    =>     7        -ABBA-                  0.6068
 BSE|            6           1    =>     9        -ABBA-                  0.2879
 BSE|            6           1    =>    13        -ABBA-                  0.1576
 BSE|            6           1    =>    19        -ABBA-                  0.1235
 BSE|
 BSE|            7           1    =>     2        -ABBA-                  0.4772
 BSE|            7           1    =>     3        -ABBA-                  0.1308
 BSE|            7           1    =>    10        -ABBA-                  0.4806
 BSE|            7           1    =>    14        -ABBA-                  0.1274
 BSE|
 BSE|            8           1    =>     5        -ABBA-                  0.3671
 BSE|            8           1    =>     6        -ABBA-                  0.3661
 BSE|            8           1    =>    11        -ABBA-                  0.3924
 BSE|            8           1    =>    12        -ABBA-                  0.2750
 BSE|
 BSE|            9           1    =>     5        -ABBA-                  0.3661
 BSE|            9           1    =>     6        -ABBA-                  0.3671
 BSE|            9           1    =>    11        -ABBA-                  0.2750
 BSE|            9           1    =>    12        -ABBA-                  0.3924
 BSE|
 BSE|           10           1    =>     7        -ABBA-                  0.2933
 BSE|           10           1    =>     8        -ABBA-                  0.1424
 BSE|           10           1    =>     9        -ABBA-                  0.3259
 BSE|           10           1    =>    13        -ABBA-                  0.5207
 BSE|           10           1    =>    19        -ABBA-                  0.1221
 BSE|
 BSE|           11           1    =>     2        -ABBA-                  0.2424
 BSE|           11           1    =>     3        -ABBA-                  0.3149
 BSE|           11           1    =>     4        -ABBA-                  0.5735
 BSE|
 BSE|           12           1    =>     8        -ABBA-                  0.5444
 BSE|           12           1    =>     9        -ABBA-                  0.3122
 BSE|           12           1    =>    13        -ABBA-                  0.3233
 BSE|
 BSE|           13           1    =>    17        -ABBA-                  0.7071
 BSE|
 BSE|           14           1    =>    18        -ABBA-                  0.7071
 BSE|
 BSE|           15           1    =>    15        -ABBA-                  0.2174
 BSE|           15           1    =>    16        -ABBA-                  0.6387
 BSE|           15           1    =>    22        -ABBA-                  0.2050
 BSE|
 BSE|           16           1    =>    15        -ABBA-                  0.6387
 BSE|           16           1    =>    16        -ABBA-                  0.2174
 BSE|           16           1    =>    21        -ABBA-                  0.2050
 BSE|
 BSE|           17           1    =>     2        -ABBA-                  0.1453
 BSE|           17           1    =>     3        -ABBA-                  0.1213
 BSE|           17           1    =>    10        -ABBA-                  0.2828
 BSE|           17           1    =>    14        -ABBA-                  0.5965
 BSE|           17           1    =>    20        -ABBA-                  0.1530
 BSE|
 BSE|           18           1    =>    14        -ABBA-                  0.1706
 BSE|           18           1    =>    20        -ABBA-                  0.6788
 BSE|
 BSE|           19           1    =>    16        -ABBA-                  0.1989
 BSE|           19           1    =>    21        -ABBA-                  0.1510
 BSE|           19           1    =>    22        -ABBA-                  0.6580
 BSE|
 BSE|           20           1    =>    15        -ABBA-                  0.1989
 BSE|           20           1    =>    21        -ABBA-                  0.6580
 BSE|           20           1    =>    22        -ABBA-                  0.1510
 BSE|
 BSE|           21           1    =>    13        -ABBA-                  0.1483
 BSE|           21           1    =>    19        -ABBA-                  0.6836
 BSE|
 BSE|           22           1    =>    23        -ABBA-                  0.6978
 BSE|
 BSE|           23           1    =>    24        -ABBA-                  0.6934
 BSE|           23           1    =>    32        -ABBA-                  0.1245
 BSE|
 BSE|           24           1    =>    25        -ABBA-                  0.6934
 BSE|           24           1    =>    33        -ABBA-                  0.1245
 BSE|
 BSE|           25           1    =>    26        -ABBA-                  0.7055
 BSE|
 BSE| Transition moments d_r^n (with r(x,y,z), in atomic units)
 BSE| and oscillator strength f^n of excitation level n are obtained from
 BSE|
 BSE|    d_r^n = sum_ia sqrt(2) < _i | r | _a > ( X_ia^n + Y_ia^n )
 BSE|
 BSE|        f^n = 2/3 * ^n sum_r(x,y,z) ( d_r^n )^2
 BSE|
 BSE| where we introduced
 BSE|
 BSE| _i:   occupied molecular orbitals,
 BSE| _a:   empty molecular orbitals and
 BSE|   r:   position operator.
 BSE|
 BSE| prelim Ref.: Eqs. (23), (24)
 BSE| in J. Chem. Phys. 152, 044105 (2020); https://doi.org/10.1063/1.5123290
 BSE|
 BSE| Optical properties from solving the BSE without the TDA:
 BSE|
 BSE|  Excitation n  TDA/ABBA        d_x^n     d_y^n     d_z^n Osc. strength f^n
 BSE|             1    -ABBA-        0.000    -0.000    -0.000             0.000
 BSE|             2    -ABBA-       -0.037    -0.000     0.000             0.002
 BSE|             3    -ABBA-       -0.000    -0.000     0.000             0.000
 BSE|             4    -ABBA-       -0.000     0.000     0.000             0.000
 BSE|             5    -ABBA-       -0.078     0.000    -0.000             0.009
 BSE|             6    -ABBA-        0.000     0.000     0.000             0.000
 BSE|             7    -ABBA-        0.055     0.000    -0.000             0.004
 BSE|             8    -ABBA-       -0.000     0.000    -0.000             0.000
 BSE|             9    -ABBA-       -0.000    -0.000    -0.000             0.000
 BSE|            10    -ABBA-        0.000     0.000     0.000             0.000
 BSE|            11    -ABBA-        0.429     0.000    -0.000             0.279
 BSE|            12    -ABBA-       -0.000    -0.000    -0.000             0.000
 BSE|            13    -ABBA-       -0.000     0.000    -0.000             0.000
 BSE|            14    -ABBA-       -0.000    -0.000    -0.000             0.000
 BSE|            15    -ABBA-       -0.000    -0.533    -0.003             0.442
 BSE|            16    -ABBA-        0.000    -0.003     0.533             0.442
 BSE|            17    -ABBA-       -0.710     0.000     0.000             0.789
 BSE|            18    -ABBA-       -1.012    -0.000    -0.000             1.672
 BSE|            19    -ABBA-        0.000    -0.886    -0.006             1.284
 BSE|            20    -ABBA-       -0.000    -0.006     0.886             1.284
 BSE|            21    -ABBA-        0.000    -0.000    -0.000             0.000
 BSE|            22    -ABBA-        0.760    -0.000    -0.000             0.994
 BSE|            23    -ABBA-        0.000     0.000     0.000             0.000
 BSE|            24    -ABBA-       -0.000    -0.000    -0.000             0.000
 BSE|            25    -ABBA-       -0.000    -0.000    -0.000             0.000
 BSE|
 BSE| Check for Thomas-Reiche-Kuhn sum rule
 BSE|
 BSE|                             N_e = _n f^n
 BSE|
 BSE| Number of electrons N_e:                                                 2
 BSE| Sum over oscillator strengths _n f^n :                             14.238
 BSE|
 BSE|
 BSE|
 BSE| The BSE was successfully calculated. Have a nice day!

  Total RI-RPA Time=                                                    0.614949


 ENERGY| Total FORCE_EVAL ( QS ) energy [hartree]             -1.168497992790625

 -------------------------------------------------------------------------------
 -                                                                             -
 -                                DBCSR STATISTICS                             -
 -                                                                             -
 -------------------------------------------------------------------------------
 COUNTER                                    TOTAL       BLAS       SMM       ACC
 flops     1 x     1 x    23                 5336     100.0%      0.0%      0.0%     
 flops     1 x    13 x    23                69368     100.0%      0.0%      0.0%     
 flops     1 x    32 x    23               170752     100.0%      0.0%      0.0%     
 flops    23 x    23 x    23               194672     100.0%      0.0%      0.0%     
 flops    23 x    46 x    23               194672     100.0%      0.0%      0.0%     
 flops    23 x     1 x    23               490912     100.0%      0.0%      0.0%     
 flops    13 x    13 x    23               901784     100.0%      0.0%      0.0%     
 flops    14 x    14 x    23              1045856     100.0%      0.0%      0.0%     
 flops    32 x    13 x    23              2219776     100.0%      0.0%      0.0%     
 flops    13 x    32 x    23              2219776     100.0%      0.0%      0.0%     
 flops    23 x    23 x    14              2310672     100.0%      0.0%      0.0%     
 flops    32 x    14 x    23              2390528     100.0%      0.0%      0.0%     
 flops    14 x    32 x    23              2390528     100.0%      0.0%      0.0%     
 flops    23 x    13 x    23              3190928     100.0%      0.0%      0.0%     
[...]
 MP_ISend             9455                1905655.
 MP_IRecv             9426                1911520.
 -------------------------------------------------------------------------------


 -------------------------------------------------------------------------------
 -                                                                             -
 -                           R E F E R E N C E S                               -
 -                                                                             -
 -------------------------------------------------------------------------------
 
 CP2K version 2025.1 (Development Version), the CP2K developers group (2025).
 CP2K is freely available from https://www.cp2k.org/ .
 
 T. D. Kuehne, M. Iannuzzi, M. Del Ben, V. V. Rybkin, P. Seewald, F. Stein, T. 
 Laino, R. Z. Khaliullin, O. Schuett, F. Schiffmann, D. Golze, J. Wilhelm, S. 
 Chulkov, M. H. Bani-Hashemian, V. Weber, U. Borstnik, M. Taillefumier, A. S. 
 Jakobovits, A. Lazzaro, H. Pabst, T. Mueller, R. Schade, M. Guidon, S. 
 Andermatt, N. Holmberg, G. K. Schenter, A. Hehn, A. Bussy, F. Belleflamme, G. 
 Tabacchi, A. Gloess, M. Lass, I. Bethune, C. J. Mundy, C. Plessl, M. Watkins, 
 J. VandeVondele, M. Krack, J. Hutter.
 J. Chem. Phys. 152, 194103 (2020).
 CP2K: An electronic structure and molecular dynamics software package - 
 Quickstep: Efficient and accurate electronic structure calculations.
 https://doi.org/10.1063/5.0007045

 J. Wilhelm, D. Golze, L. Talirz, J. Hutter, C. A. Pignedoli.
 J. Phys. Chem. Lett. 9, 306-312 (2018).
 Toward GW calculations on thousands of atoms.
 https://doi.org/10.1021/acs.jpclett.7b02740

 J. Wilhelm, J. Hutter.
 Phys. Rev. B 95, 235123 (2017).
 Periodic GW calculations in the Gaussian and plane-waves scheme.
 https://doi.org/10.1103/PhysRevB.95.235123

 O. Schuett, P. Messmer, J. Hutter, J. VandeVondele.
 Electronic Structure Calculations on Graphics Processing Units, 173-190 (2016).
 GPU-Accelerated Sparse Matrix-Matrix Multiplication for Linear Scaling Density 
 Functional Theory.
 https://doi.org/10.1002/9781118670712.ch8

 J. Wilhelm, M. Del Ben, J. Hutter.
 J. Chem. Theory Comput. 12, 3623-3635 (2016).
 GW in the Gaussian and plane waves scheme with application to linear acenes.
 https://doi.org/10.1021/acs.jctc.6b00380

 M. Del Ben, O. Schuett, T. Wentz, P. Messmer, J. Hutter, J. VandeVondele.
 Comput. Phys. Commun. 187, 120-129 (2015).
 Enabling simulation at the fifth rung of DFT: Large scale RPA calculations with 
 excellent time to solution.
 https://doi.org/10.1016/j.cpc.2014.10.021

 J. Hutter, M. Iannuzzi, F. Schiffmann, J. VandeVondele.
 WIREs Comput Mol Sci. 4, 15-25 (2014).
 CP2K: atomistic simulations of condensed matter systems.
 https://doi.org/10.1002/wcms.1159

 U. Borstnik, J. VandeVondele, V. Weber, J. Hutter.
 Parallel Comput. 40, 47-58 (2014).
 Sparse matrix multiplication: The distributed block-compressed sparse row 
 library.
 https://doi.org/10.1016/j.parco.2014.03.012

 M. Del Ben, J. Hutter, J. VandeVondele.
 J. Chem. Theory Comput. 9, 2654-2671 (2013).
 Electron Correlation in the Condensed Phase from a Resolution of Identity 
 Approach Based on the Gaussian and Plane Waves Scheme.
 https://doi.org/10.1021/ct4002202

 M. Del Ben, J. Hutter, J. VandeVondele.
 J. Chem. Theory Comput. 8, 4177-4188 (2012).
 Second-Order Moller-Plesset Perturbation Theory in the Condensed Phase: An 
 Efficient and Massively Parallel Gaussian and Plane Waves Approach.
 https://doi.org/10.1021/ct300531w

 M. Guidon, J. Hutter, J. VandeVondele.
 J. Chem. Theory Comput. 5, 3010-3021 (2009).
 Robust Periodic Hartree-Fock Exchange for Large-Scale Simulations Using 
 Gaussian Basis Sets.
 https://doi.org/10.1021/ct900494g

 M. Guidon, F. Schiffmann, J. Hutter, J. VandeVondele.
 J. Chem. Phys. 128, 214104 (2008).
 Ab initio molecular dynamics using hybrid density functionals.
 https://doi.org/10.1063/1.2931945

 L. Genovese, T. Deutsch, S. Goedecker.
 J. Chem. Phys. 127, 054704 (2007).
 Efficient and accurate three-dimensional Poisson solver for surface problems.
 https://doi.org/10.1063/1.2754685

 J. VandeVondele, J. Hutter.
 J. Chem. Phys. 127, 114105 (2007).
 Gaussian basis sets for accurate calculations on molecular systems in gas and 
 condensed phases.
 https://doi.org/10.1063/1.2770708

 L. Genovese, T. Deutsch, A. Neelov, S. Goedecker, G. Beylkin.
 J. Chem. Phys. 125, 074105 (2006).
 Efficient solution of Poisson's equation with free boundary conditions.
 https://doi.org/10.1063/1.2335442

 M. Frigo, S. G. Johnson.
 Proc. IEEE 93, 216-231 (2005).
 The design and implementation of FFTW3.
 https://doi.org/10.1109/JPROC.2004.840301

 M. Krack, M. Parrinello.
 Phys. Chem. Chem. Phys. 2, 2105-2112 (2000).
 All-electron ab-initio molecular dynamics.
 https://doi.org/10.1039/b001167n

 G. Lippert, J. Hutter, M. Parrinello.
 Theor. Chem. Acc. 103, 124-140 (1999).
 The Gaussian and augmented-plane-wave density functional method for ab initio 
 molecular dynamics simulations.
 https://doi.org/10.1007/s002140050523

 J. P. Perdew, K. Burke, M. Ernzerhof.
 Phys. Rev. Lett. 77, 3865-3868 (1996).
 Generalized gradient approximation made simple.
 https://doi.org/10.1103/PhysRevLett.77.3865


 -------------------------------------------------------------------------------
 -                                                                             -
 -                                T I M I N G                                  -
 -                                                                             -
 -------------------------------------------------------------------------------
 SUBROUTINE                       CALLS  ASD         SELF TIME        TOTAL TIME
                                MAXIMUM       AVERAGE  MAXIMUM  AVERAGE  MAXIMUM
 CP2K                                 1  1.0    0.044    0.066  289.562  289.563
 qs_energies                          1  2.0    0.001    0.001  287.996  288.224
 scf_env_do_scf                       1  3.0    0.000    0.000  283.349  283.350
 scf_env_do_scf_inner_loop           52  4.0    0.002    0.003  283.349  283.350
 qs_ks_build_kohn_sham_matrix        53  7.0    0.009    0.009  214.046  214.049
 qs_ks_update_qs_env                 52  5.0    0.000    0.000  211.458  211.461
 rebuild_ks_matrix                   52  6.0    0.000    0.000  211.455  211.458
 fft_wrap_pw1pw2                   1104  9.9    0.026    0.031  128.049  129.616
 fft_wrap_pw1pw2_250                786 11.1    5.648    6.308  124.066  125.611
 fft3d_ps                          1104 11.9   55.903   58.448  100.848  102.198
 pw_poisson_solve                    53  8.0    2.327    2.388   89.070   89.101
 qs_vxc_create                       53  8.0    0.001    0.001   77.242   77.242
 xc_vxc_pw_create                    52  9.0    1.517    1.568   77.241   77.241
 ps_wavelet_solve                    53  9.0   49.802   53.044   59.388   59.538
 xc_pw_derive                       312 11.0    0.004    0.005   55.246   55.989
 mp_alltoall_d54                     53 10.0    6.043   46.693    6.043   46.693
 gspace_mixing                       51  5.0    1.093    1.102   39.422   39.422
 xc_rho_set_and_dset_create          52 10.0    1.150    1.335   38.236   39.033
 xc_pw_divergence                    52 10.0    0.002    0.003   36.750   37.323
 mp_alltoall_z22v                  1104 13.9   27.666   35.447   27.666   35.447
 qs_rho_update_rho_low               53  5.0    0.001    0.001   32.763   32.764
 calculate_rho_elec                  53  6.0    1.216    1.233   32.740   32.740
 broyden_mixing                      51  6.0   28.984   29.613   29.888   30.074
 x_to_yz                            577 13.1   11.705   11.909   25.389   26.030
 density_rs2pw                       53  7.0    0.004    0.005   24.489   24.816
 yz_to_x                            527 12.8    5.559    6.660   19.540   24.305
 sum_up_and_integrate                53  8.0    0.001    0.001   17.489   17.515
 integrate_v_rspace                  53  9.0    0.001    0.002   17.172   17.217
 potential_pw2rs                     53 10.0    0.050    0.061   16.749   16.809
 prepare_gapw_den                    53  8.0    0.001    0.001   13.384   13.569
 put_rho0_on_grid                    53  9.0    1.129    1.142   13.279   13.464
 transfer_pw2rs                     266 10.5    0.004    0.005    9.517    9.592
 pw_scatter_p                       577 12.1    9.205    9.355    9.205    9.355
 xc_functional_eval                 156 10.9    0.001    0.001    8.167    8.748
 pbe_lda_eval                       156 11.9    8.166    8.747    8.166    8.747
 pw_gather_p                        527 11.8    7.707    8.364    7.707    8.364
 transfer_rs2pw                     266  8.4    0.007    0.009    8.109    8.298
 mp_waitany                        8960 11.5    6.580    7.330    6.580    7.330
 transfer_pw2rs_250                 107 10.9    2.539    2.680    6.879    7.003
 grid_collocate_task_list            53  7.0    6.639    6.938    6.639    6.938
 pw_derive                          471 11.3    6.251    6.513    6.251    6.513
 transfer_rs2pw_250                 107 10.0    2.598    2.777    5.966    6.183
 mp_sum_d                          1637  6.0    2.542    4.571    2.542    4.571
 integrate_vhg0_rspace               53  8.0    0.013    0.017    4.323    4.327
 mp_alltoall_d45                     54 10.0    3.012    3.995    3.012    3.995
 fft_wrap_pw1pw2_90                 106 10.5    0.159    0.209    3.267    3.767
 cp2k_distribution_to_z_slices       53  9.0    2.143    2.234    3.373    3.765
 mp2_main                             1  3.0    0.000    0.001    3.390    3.618
 pw_copy                            790 10.6    3.350    3.543    3.350    3.543
 pw_poisson_set                      54  8.9    0.002    0.002    3.136    3.167
 pw_copy_to_array                   527 11.8    2.860    3.155    2.860    3.155
 mp_alltoall_d11v                   992  9.4    2.315    2.997    2.315    2.997
 hfx_ks_matrix                       53  8.0    0.002    0.002    2.636    2.705
 integrate_four_center               53  9.0    1.072    2.234    2.633    2.702
 compute_vec_Sigma_x_minus_vxc_       1  4.0    0.000    0.000    2.595    2.595
 pw_axpy                            525  9.3    2.309    2.485    2.309    2.485
 mp_sync                            683  9.3    1.360    2.432    1.360    2.432
 rs_grid_zero                       267 11.1    2.132    2.181    2.132    2.181
 pw_integral_ab_c1d_c1d_gs           53  9.0    1.585    1.735    1.899    1.999
 pw_copy_from_array                 577 12.1    1.565    1.888    1.565    1.888
 pw_poisson_rebuild                  53  9.0    0.000    0.000    1.826    1.857
 ps_wavelet_create                    1 10.0    0.000    0.000    1.826    1.857
 RS_z_slice_distribution              1 11.0    1.650    1.733    1.826    1.857
 transfer_pw2rs_90                   53 12.0    0.397    0.419    1.291    1.426
 mp_isend_dv                       9125 11.6    0.732    1.178    0.732    1.178
 pw_zero                            314 10.3    1.088    1.141    1.088    1.141
 transfer_pw2rs_30                   53 12.0    0.599    0.637    1.030    1.104
 transfer_rs2pw_90                   53  9.0    0.320    0.339    0.990    1.047
 init_scf_run                         1  3.0    0.000    0.000    1.002    1.002
 scf_env_initial_rho_setup            1  4.0    0.000    0.000    0.996    0.997
 mp_waitall_1                      9674 12.1    0.682    0.977    0.682    0.977
 mp_sum_dm                          375  7.6    0.761    0.935    0.761    0.935
 transfer_rs2pw_30                   53  9.0    0.471    0.492    0.909    0.928
 qs_init_subsys                       1  2.0    0.003    0.004    0.851    0.852
 qs_env_setup                         1  3.0    0.000    0.000    0.845    0.845
 qs_env_rebuild_pw_env                2  3.5    0.000    0.000    0.843    0.844
 pw_env_rebuild                       1  5.0    0.001    0.001    0.843    0.844
 pw_grid_setup                        4  6.0    0.000    0.000    0.836    0.837
 pw_grid_setup_internal               4  7.0    0.020    0.024    0.836    0.837
 mp_max_i                           530  2.7    0.407    0.815    0.407    0.815
 scale_and_distribute               106 10.0    0.707    0.737    0.707    0.737
 Vh_1c_gg_integrals                  53  8.0    0.004    0.020    0.230    0.703
 pw_grid_sort                         4  8.0    0.471    0.476    0.668    0.676
 mp_sendrecv_dv                    2438 10.0    0.585    0.618    0.585    0.618
 mp2_gpw_main                         1  4.0    0.000    0.000    0.604    0.615
 fft_wrap_pw1pw2_30                 106 10.5    0.026    0.030    0.559    0.593
 mp_isend_dm3                      1280 11.5    0.300    0.553    0.300    0.553
 rpa_ri_compute_en                    1  5.0    0.000    0.001    0.508    0.508
 mp_irecv_dm3                      1280 11.5    0.333    0.505    0.333    0.505
 rpa_num_int                          1  6.0    0.001    0.001    0.504    0.504
 rs_gather_matrices                  53 10.0    0.001    0.002    0.344    0.432
 mp_sum_i                            17  9.9    0.228    0.397    0.228    0.397
 grid_integrate_task_list            53 10.0    0.077    0.397    0.077    0.397
 restraint_control                    1  2.0    0.000    0.000    0.228    0.397
 mp2_main_alloc_hfx                   1  4.0    0.169    0.397    0.169    0.397
 pw_scale                           209  9.5    0.351    0.396    0.351    0.396
 qs_scf_new_mos                      52  5.0    0.001    0.001    0.386    0.389
 calculate_vxc_atom                  53  8.0    0.013    0.086    0.389    0.389
 create_qs_kind_set                   1  2.0    0.000    0.000    0.374    0.374
 read_qs_kind                         1  3.0    0.207    0.213    0.374    0.374
 compute_GW_self_energy             100  7.0    0.001    0.001    0.320    0.351
 transfer_pw2rs_10                   53 12.0    0.132    0.139    0.312    0.333
 mp_isendrecv_dv                   4876 12.0    0.165    0.331    0.165    0.331
 compute_GW_self_energy_deep        100  8.0    0.230    0.260    0.288    0.320
 mp_sum_dv                         2464 10.8    0.206    0.303    0.206    0.303
 mixing_init                          1  5.0    0.287    0.294    0.294    0.295
 integrate_four_center_main          53 10.0    0.012    0.099    0.027    0.262
 gaVxcgb_GC                          52  9.0    0.020    0.243    0.020    0.243
 transfer_rs2pw_10                   53  9.0    0.089    0.095    0.236    0.243
 integrate_four_center_bin         4010 11.0    0.015    0.243    0.015    0.243
 eigensolver_symm                    53  6.0    0.002    0.002    0.210    0.211
 cp_fm_syevd                         58  6.9    0.000    0.001    0.208    0.209
 sort_shells                          4  9.0    0.196    0.200    0.196    0.200
 xc_pw_smooth                        52 10.0    0.000    0.000    0.142    0.179
 cp_fm_redistribute_end              58  7.9    0.097    0.174    0.098    0.175
 parser_read_line                 43963  4.0    0.015    0.016    0.167    0.169
 scf_post_calculation_gpw             1  3.0    0.000    0.000    0.163    0.165
 write_available_results              1  4.0    0.000    0.000    0.163    0.165
 write_mo_free_results                1  5.0    0.033    0.037    0.163    0.165
 parser_read_line_low                49  5.0    0.015    0.068    0.151    0.154
 cp_fm_syevd_base                    58  7.9    0.077    0.153    0.077    0.153
 broadcast_input_information         49  6.0    0.037    0.041    0.136    0.145
 fft_wrap_pw1pw2_10                 106 10.5    0.006    0.007    0.130    0.142
 calculate_dm_sparse                 52  6.0    0.000    0.000    0.133    0.135
 cp_dbcsr_plus_fm_fm_t               52  7.0    0.001    0.001    0.133    0.134
 calc_screening_functions             1 10.0    0.060    0.061    0.128    0.130
 dbcsr_multiply_generic              81  8.1    0.004    0.004    0.114    0.117
 mp_irecv_dv                       9110 11.6    0.069    0.113    0.069    0.113
 powell_optimize                  43634 11.0    0.107    0.111    0.107    0.111
 pw_grid_assign                       4  8.0    0.104    0.109    0.107    0.110
 rpa_num_int_RPA_matrix_operati     100  7.0    0.001    0.002    0.101    0.101
 parallel_gemm_fm                   323  8.7    0.000    0.000    0.098    0.100
 parallel_gemm_fm_gemm              323  9.7    0.000    0.001    0.098    0.100
 cp_fm_gemm                         323 10.7    0.097    0.100    0.097    0.100
 calculate_rho_atom                  53  9.0    0.046    0.094    0.046    0.094
 qs_energies_init_hamiltonians        1  3.0    0.000    0.000    0.091    0.091
 build_core_hamiltonian_matrix        1  4.0    0.000    0.000    0.087    0.087
 overlap_condnum                      1  5.0    0.000    0.000    0.085    0.085
 mp2_ri_gpw_compute_in                1  5.0    0.000    0.000    0.083    0.083
 mp2_ri_gpw_compute_in_loop           1  6.0    0.000    0.000    0.080    0.080
 calc_mat_Q                         100  8.0    0.000    0.000    0.073    0.074
 contract_S_to_Q                    100  9.0    0.001    0.001    0.071    0.073
 contract_B_L                         4  7.0    0.001    0.001    0.066    0.069
 arnoldi_conjugate_gradient           5  6.0    0.002    0.003    0.069    0.069
 hirshfeld_integration                1  6.0    0.000    0.000    0.064    0.067
 calculate_hirshfeld_normalizat       1  6.0    0.000    0.000    0.063    0.064
 dbcsr_complete_redistribute        183  8.4    0.007    0.010    0.061    0.062
 calc_pair_dist_radii                 1 10.0    0.020    0.020    0.060    0.061
 make_m2s                           162  9.1    0.003    0.003    0.057    0.060
 copy_dbcsr_to_fm                    75  6.5    0.001    0.002    0.056    0.059
 mp_bcast_i_src                     196  7.0    0.050    0.057    0.050    0.057
 cp_fm_to_fm_submat_general         112 10.1    0.055    0.057    0.055    0.057
 mp_bcast_am_src                     49  7.0    0.040    0.042    0.047    0.053
 dbt_total                            8  8.0    0.000    0.000    0.047    0.047
 dbt_contract                         4  9.0    0.001    0.001    0.042    0.043
 dbcsr_sym_matrix_vector_mult       300  7.0    0.005    0.005    0.031    0.041
 multiply_cannon                     81  9.1    0.006    0.007    0.037    0.039
 vxc_of_r_new                       104  9.0    0.000    0.005    0.003    0.037
 offload_free_buffer                 61  8.2    0.032    0.036    0.032    0.036
 dbcsr_finalize                    1626 10.8    0.006    0.011    0.021    0.036
 start_bse_calculation                1  7.0    0.000    0.000    0.034    0.034
 cp_fm_redistribute_start            58  7.9    0.026    0.027    0.033    0.034
 copy_fm_to_dbcsr                   108  8.1    0.000    0.001    0.032    0.034
 pw_grid_remap                        4  8.0    0.014    0.014    0.026    0.032
 mp_sum_l                           825  5.6    0.023    0.030    0.023    0.030
 dbt_tas_multiply                     8 11.5    0.000    0.000    0.030    0.030
 dbt_tas_total                        8 12.5    0.001    0.002    0.030    0.030
 -------------------------------------------------------------------------------

 The number of warnings for this run is : 1
 
 -------------------------------------------------------------------------------
  **** **** ******  **  PROGRAM ENDED AT                 2025-03-10 22:55:29.124
 ***** ** ***  *** **   PROGRAM RAN ON                              i03r11c05s10
 **    ****   ******    PROGRAM RAN BY                                   di38fab
 ***** **    ** ** **   PROGRAM PROCESS ID                               1817411
  **** **  *******  **  PROGRAM STOPPED IN /hppfs/scratch/04/di38fab/05_MOL/W4-1
                                           1+ALK/h2/aug-cc-pVTZ
