 DBCSR| CPU Multiplication driver                                           BLAS (U)
 DBCSR| Multrec recursion limit                                              512 (U)
 DBCSR| Multiplication stack size                                           1000 (D)
 DBCSR| Maximum elements for images                                    UNLIMITED (U)
 DBCSR| Multiplicative factor virtual images                                   1 (U)
 DBCSR| Use multiplication densification                                       T (D)
 DBCSR| Multiplication size stacks                                             3 (U)
 DBCSR| Use memory pool for CPU allocation                                     F (U)
 DBCSR| Number of 3D layers                                               SINGLE (U)
 DBCSR| Use MPI memory allocation                                              F (U)
 DBCSR| Use RMA algorithm                                                      F (U)
 DBCSR| Use Communication thread                                               T (U)
 DBCSR| Communication thread load                                             75 (D)
 DBCSR| MPI: My process id                                                     0
 DBCSR| MPI: Number of processes                                              24
 DBCSR| OMP: Current number of threads                                         4
 DBCSR| OMP: Max number of threads                                             4
 DBCSR| Split modifier for TAS multiplication algorithm                  1.0E+00 (U)


  **** **** ******  **  PROGRAM STARTED AT               2025-03-09 12:57:18.263
 ***** ** ***  *** **   PROGRAM STARTED ON                          i03r08c03s06
 **    ****   ******    PROGRAM STARTED BY                               di38fab
 ***** **    ** ** **   PROGRAM PROCESS ID                                144235
  **** **  *******  **  PROGRAM STARTED IN /hppfs/scratch/04/di38fab/05_MOL/W4-1
                                           1+ALK/li2/aug-cc-pVDZ

 CP2K| version string:                 CP2K version 2025.1 (Development Version)
 CP2K| source code revision number:                                  git:47877ba
 CP2K| cp2kflags: omp libint fftw3 libxc parallel scalapack max_contr=4         
 CP2K| is freely available from                            https://www.cp2k.org/
 CP2K| Program compiled at                          Thu Feb 20 16:00:34 CET 2025
 CP2K| Program compiled on                                               login04
 CP2K| Program compiled for                                        Supermuc-foss
 CP2K| Data directory path          /hppfs/work/pn36zo/di38fab/newcp2k/cp2k/data
 CP2K| Input file name                                                    GW.inp

 GLOBAL| Force Environment number                                              1
 GLOBAL| Basis set file name            /hppfs/scratch/04/di38fab/04_TMD/BASIS_A
 GLOBAL| Potential file name            /hppfs/work/pn36zo/di38fab/cp2k/data/ALL
 GLOBAL| MM Potential file name                                     MM_POTENTIAL
 GLOBAL| Coordinate file name                                      __STD_INPUT__
 GLOBAL| Method name                                                        CP2K
 GLOBAL| Project name                                                       MoS2
 GLOBAL| Run type                                                         ENERGY
 GLOBAL| FFT library                                                       FFTW3
 GLOBAL| Diagonalization library                                       ScaLAPACK
 GLOBAL| DGEMM library                                                      BLAS
 GLOBAL| Orthonormality check for eigenvectors                          DISABLED
 GLOBAL| Matrix multiplication library                                 ScaLAPACK
 GLOBAL| All-to-all communication in single precision                          F
 GLOBAL| FFTs using library dependent lengths                                  F
 GLOBAL| Grid backend                                                       AUTO
 GLOBAL| Global print level                                               MEDIUM
 GLOBAL| MPI I/O enabled                                                       T
 GLOBAL| Total number of message passing processes                            24
 GLOBAL| Number of threads for this process                                    4
 GLOBAL| This output is from process                                           0
 GLOBAL| OpenMP stack size per thread (OMP_STACKSIZE)                    default
 GLOBAL| CPU model name             Intel(R) Xeon(R) Platinum 8174 CPU @ 3.10GHz

 MEMORY| system memory details [Kb]
 MEMORY|                        rank 0           min           max       average
 MEMORY| MemTotal             98436664      98436664      98436664      98436664
 MEMORY| MemFree              84010468      84010468      84257596      84134032
 MEMORY| Buffers                     0             0             0             0
 MEMORY| Cached                2433372       2415836       2433372       2424604
 MEMORY| Slab                  1234484       1177280       1234484       1205882
 MEMORY| SReclaimable           267516        258876        267516        263196
 MEMORY| MemLikelyFree        86711356      86711356      86932308      86821832


 *** Fundamental physical constants (SI units) ***

 *** Literature: B. J. Mohr and B. N. Taylor,
 ***             CODATA recommended values of the fundamental physical
 ***             constants: 2006, Web Version 5.1
 ***             http://physics.nist.gov/constants

 Speed of light in vacuum [m/s]                             2.99792458000000E+08
 Magnetic constant or permeability of vacuum [N/A**2]       1.25663706143592E-06
 Electric constant or permittivity of vacuum [F/m]          8.85418781762039E-12
 Planck constant (h) [J*s]                                  6.62606896000000E-34
 Planck constant (h-bar) [J*s]                              1.05457162825177E-34
 Elementary charge [C]                                      1.60217648700000E-19
 Electron mass [kg]                                         9.10938215000000E-31
 Electron g factor [ ]                                     -2.00231930436220E+00
 Proton mass [kg]                                           1.67262163700000E-27
 Fine-structure constant                                    7.29735253760000E-03
 Rydberg constant [1/m]                                     1.09737315685270E+07
 Avogadro constant [1/mol]                                  6.02214179000000E+23
 Boltzmann constant [J/K]                                   1.38065040000000E-23
 Atomic mass unit [kg]                                      1.66053878200000E-27
 Bohr radius [m]                                            5.29177208590000E-11

 *** Conversion factors ***

 [u] -> [a.u.]                                              1.82288848426455E+03
 [Angstrom] -> [Bohr] = [a.u.]                              1.88972613288564E+00
 [a.u.] = [Bohr] -> [Angstrom]                              5.29177208590000E-01
 [a.u.] -> [s]                                              2.41888432650478E-17
 [a.u.] -> [fs]                                             2.41888432650478E-02
 [a.u.] -> [J]                                              4.35974393937059E-18
 [a.u.] -> [N]                                              8.23872205491840E-08
 [a.u.] -> [K]                                              3.15774647902944E+05
 [a.u.] -> [kJ/mol]                                         2.62549961709828E+03
 [a.u.] -> [kcal/mol]                                       6.27509468713739E+02
 [a.u.] -> [Pa]                                             2.94210107994716E+13
 [a.u.] -> [bar]                                            2.94210107994716E+08
 [a.u.] -> [atm]                                            2.90362800883016E+08
 [a.u.] -> [eV]                                             2.72113838565563E+01
 [a.u.] -> [Hz]                                             6.57968392072181E+15
 [a.u.] -> [1/cm] (wave numbers)                            2.19474631370540E+05
 [a.u./Bohr**2] -> [1/cm]                                   5.14048714338585E+03
 

 CELL_TOP| Volume [angstrom^3]:                                     27000.000000
 CELL_TOP| Vector a [angstrom    30.000     0.000     0.000   |a| =    30.000000
 CELL_TOP| Vector b [angstrom     0.000    30.000     0.000   |b| =    30.000000
 CELL_TOP| Vector c [angstrom     0.000     0.000    30.000   |c| =    30.000000
 CELL_TOP| Angle (b,c), alpha [degree]:                                90.000000
 CELL_TOP| Angle (a,c), beta  [degree]:                                90.000000
 CELL_TOP| Angle (a,b), gamma [degree]:                                90.000000
 CELL_TOP| Numerically orthorhombic:                                         YES
 CELL_TOP| Periodicity                                                      NONE

 GENERATE|  Preliminary Number of Bonds generated:                             0
 GENERATE|  Achieved consistency in connectivity generation.

 CELL| Volume [angstrom^3]:                                         27000.000000
 CELL| Vector a [angstrom]:      30.000     0.000     0.000   |a| =    30.000000
 CELL| Vector b [angstrom]:       0.000    30.000     0.000   |b| =    30.000000
 CELL| Vector c [angstrom]:       0.000     0.000    30.000   |c| =    30.000000
 CELL| Angle (b,c), alpha [degree]:                                    90.000000
 CELL| Angle (a,c), beta  [degree]:                                    90.000000
 CELL| Angle (a,b), gamma [degree]:                                    90.000000
 CELL| Numerically orthorhombic:                                             YES
 CELL| Periodicity                                                          NONE

 CELL_REF| Volume [angstrom^3]:                                     27000.000000
 CELL_REF| Vector a [angstrom    30.000     0.000     0.000   |a| =    30.000000
 CELL_REF| Vector b [angstrom     0.000    30.000     0.000   |b| =    30.000000
 CELL_REF| Vector c [angstrom     0.000     0.000    30.000   |c| =    30.000000
 CELL_REF| Angle (b,c), alpha [degree]:                                90.000000
 CELL_REF| Angle (a,c), beta  [degree]:                                90.000000
 CELL_REF| Angle (a,b), gamma [degree]:                                90.000000
 CELL_REF| Numerically orthorhombic:                                         YES
 CELL_REF| Periodicity                                                      NONE

 *******************************************************************************
 *******************************************************************************
 **                                                                           **
 **     #####                         ##              ##                      **
 **    ##   ##            ##          ##              ##                      **
 **   ##     ##                       ##            ######                    **
 **   ##     ##  ##   ##  ##   #####  ##  ##   ####   ##    #####    #####    **
 **   ##     ##  ##   ##  ##  ##      ## ##   ##      ##   ##   ##  ##   ##   **
 **   ##  ## ##  ##   ##  ##  ##      ####     ###    ##   ######   ######    **
 **    ##  ###   ##   ##  ##  ##      ## ##      ##   ##   ##       ##        **
 **     #######   #####   ##   #####  ##  ##  ####    ##    #####   ##        **
 **           ##                                                    ##        **
 **                                                                           **
 **                                                ... make the atoms dance   **
 **                                                                           **
 **            Copyright (C) by CP2K developers group (2000-2025)             **
 **                      J. Chem. Phys. 152, 194103 (2020)                    **
 **                                                                           **
 *******************************************************************************

 DFT| Spin restricted Kohn-Sham (RKS) calculation                            RKS
 DFT| Multiplicity                                                             1
 DFT| Number of spin states                                                    1
 DFT| Charge                                                                   0
 DFT| Self-interaction correction (SIC)                                       NO
 DFT| Cutoffs: density                                              1.000000E-10
 DFT|          gradient                                             1.000000E-10
 DFT|          tau                                                  1.000000E-10
 DFT|          cutoff_smoothing_range                               0.000000E+00
 DFT| XC density smoothing                                                  NONE
 DFT| XC derivatives                                                          PW

 FUNCTIONAL| PBE:
 FUNCTIONAL| J.P.Perdew, K.Burke, M.Ernzerhof, Phys. Rev. Letter, vol. 77, n 18,
 FUNCTIONAL|  pp. 3865-3868, (1996)sx=0.750sc=1.000{spin unpolarized}           


 QS| Method:                                                                GAPW
 QS| Density plane wave grid type                        NON-SPHERICAL FULLSPACE
 QS| Number of grid levels:                                                    4
 QS| Density cutoff [a.u.]:                                                250.0
 QS| Multi grid cutoff [a.u.]: 1) grid level                               250.0
 QS|                           2) grid level                                83.3
 QS|                           3) grid level                                27.8
 QS|                           4) grid level                                 9.3
 QS| Grid level progression factor:                                          3.0
 QS| Relative density cutoff [a.u.]:                                        50.0
 QS| Interaction thresholds: eps_pgf_orb:                                1.0E-12
 QS|                         eps_filter_matrix:                          0.0E+00
 QS|                         eps_core_charge:                            1.0E-14
 QS|                         eps_rho_gspace:                             1.0E-12
 QS|                         eps_rho_rspace:                             1.0E-12
 QS|                         eps_gvg_rspace:                             1.0E-06
 QS|                         eps_ppl:                                    1.0E-02
 QS|                         eps_ppnl:                                   1.0E-08
 QS| GAPW|      One center basis from orbital basis primitives
 QS| GAPW|                   eps_fit:                                    1.0E-04
 QS| GAPW|                   eps_iso:                                    1.0E-12
 QS| GAPW|                   eps_svd:                                    1.0E-08
 QS| GAPW|                   eps_cpc:                                    1.0E-12
 QS| GAPW|   atom-r-grid: quadrature:                                     GC_LOG
 QS| GAPW|      atom-s-grid:  max l :                                          4
 QS| GAPW|      max_l_rho0 :                                                   2


 ATOMIC KIND INFORMATION

  1. Atomic kind: li                                    Number of atoms:       2

     Orbital Basis Set                                               aug-cc-pVDZ

       Number of orbital shell sets:                                           6
       Number of orbital shells:                                               9
       Number of primitive Cartesian functions:                               17
       Number of Cartesian basis functions:                                   25
       Number of spherical basis functions:                                   23
       Norm type:                                                              2

       Normalised Cartesian orbitals:

                        Set   Shell   Orbital            Exponent    Coefficient

                          1       1    1px               0.005800       0.002282
                          1       1    1py               0.005800       0.002282
                          1       1    1pz               0.005800       0.002282

                          2       1    1s                0.008600       0.020127

                          3       1    1px               1.534000       0.055444
                                                         0.274900       0.039469
                                                         0.073620       0.027351
                                                         0.024030       0.006857
                          3       1    1py               1.534000       0.055444
                                                         0.274900       0.039469
                                                         0.073620       0.027351
                                                         0.024030       0.006857
                          3       1    1pz               1.534000       0.055444
                                                         0.274900       0.039469
                                                         0.073620       0.027351
                                                         0.024030       0.006857

                          3       2    2px               1.534000       0.000000
                                                         0.274900       0.000000
                                                         0.073620       0.000000
                                                         0.024030       0.013486
                          3       2    2py               1.534000       0.000000
                                                         0.274900       0.000000
                                                         0.073620       0.000000
                                                         0.024030       0.013486
                          3       2    2pz               1.534000       0.000000
                                                         0.274900       0.000000
                                                         0.073620       0.000000
                                                         0.024030       0.013486

                          4       1    1s             1469.000000       0.129540
                                                       220.500000       0.240287
                                                        50.260000       0.399171
                                                        14.240000       0.570408
                                                         4.581000       0.631093
                                                         1.580000       0.455113
                                                         0.564000       0.127452
                                                         0.073450       0.000981
                                                         0.028050      -0.000155

                          4       2    2s             1469.000000      -0.020294
                                                       220.500000      -0.037642
                                                        50.260000      -0.063082
                                                        14.240000      -0.092379
                                                         4.581000      -0.109133
                                                         1.580000      -0.096431
                                                         0.564000      -0.063259
                                                         0.073450       0.057829
                                                         0.028050       0.025287

                          4       3    3s             1469.000000       0.000000
                                                       220.500000       0.000000
                                                        50.260000       0.000000
                                                        14.240000       0.000000
                                                         4.581000       0.000000
                                                         1.580000       0.000000
                                                         0.564000       0.000000
                                                         0.073450       0.000000
                                                         0.028050       0.048849

                          5       1    1dx2              0.073300       0.016996
                          5       1    1dxy              0.073300       0.029438
                          5       1    1dxz              0.073300       0.029438
                          5       1    1dy2              0.073300       0.016996
                          5       1    1dyz              0.073300       0.029438
                          5       1    1dz2              0.073300       0.016996

                          6       1    1dx2              0.114400       0.037039
                          6       1    1dxy              0.114400       0.064153
                          6       1    1dxz              0.114400       0.064153
                          6       1    1dy2              0.114400       0.037039
                          6       1    1dyz              0.114400       0.064153
                          6       1    1dz2              0.114400       0.037039

     RI Auxiliary Basis Set                                    aug-cc-pV5Z-RIFIT

       Number of orbital shell sets:                                          46
       Number of orbital shells:                                              46
       Number of primitive Cartesian functions:                               46
       Number of Cartesian basis functions:                                  371
       Number of spherical basis functions:                                  242
       Norm type:                                                              2

       Normalised Cartesian orbitals:

                        Set   Shell   Orbital            Exponent    Coefficient

                          1       1    1s                0.030479       0.051989

                          2       1    1px               0.045175       0.029687
                          2       1    1py               0.045175       0.029687
                          2       1    1pz               0.045175       0.029687

                          3       1    1dx2              0.048718       0.008315
                          3       1    1dxy              0.048718       0.014402
                          3       1    1dxz              0.048718       0.014402
                          3       1    1dy2              0.048718       0.008315
                          3       1    1dyz              0.048718       0.014402
                          3       1    1dz2              0.048718       0.008315

                          4       1    1s                0.064288       0.090993

                          5       1    1fx3              0.065213       0.003164
                          5       1    1fx2y             0.065213       0.007075
                          5       1    1fx2z             0.065213       0.007075
                          5       1    1fxy2             0.065213       0.007075
                          5       1    1fxyz             0.065213       0.012253
                          5       1    1fxz2             0.065213       0.007075
                          5       1    1fy3              0.065213       0.003164
                          5       1    1fy2z             0.065213       0.007075
                          5       1    1fyz2             0.065213       0.007075
                          5       1    1fz3              0.065213       0.003164

                          6       1    1px               0.072777       0.053881
                          6       1    1py               0.072777       0.053881
                          6       1    1pz               0.072777       0.053881

                          7       1    1gx4              0.099854       0.001971
                          7       1    1gx3y             0.099854       0.005215
                          7       1    1gx3z             0.099854       0.005215
                          7       1    1gx2y2            0.099854       0.006732
                          7       1    1gx2yz            0.099854       0.011661
                          7       1    1gx2z2            0.099854       0.006732
                          7       1    1gxy3             0.099854       0.005215
                          7       1    1gxy2z            0.099854       0.011661
                          7       1    1gxyz2            0.099854       0.011661
                          7       1    1gxz3             0.099854       0.005215
                          7       1    1gy4              0.099854       0.001971
                          7       1    1gy3z             0.099854       0.005215
                          7       1    1gy2z2            0.099854       0.006732
                          7       1    1gyz3             0.099854       0.005215
                          7       1    1gz4              0.099854       0.001971

                          8       1    1dx2              0.101078       0.029823
                          8       1    1dxy              0.101078       0.051656
                          8       1    1dxz              0.101078       0.051656
                          8       1    1dy2              0.101078       0.029823
                          8       1    1dyz              0.101078       0.051656
                          8       1    1dz2              0.101078       0.029823

                          9       1    1px               0.121261       0.101998
                          9       1    1py               0.121261       0.101998
                          9       1    1pz               0.121261       0.101998

                         10       1    1s                0.123532       0.148506

                         11       1    1fx3              0.156013       0.022520
                         11       1    1fx2y             0.156013       0.050356
                         11       1    1fx2z             0.156013       0.050356
                         11       1    1fxy2             0.156013       0.050356
                         11       1    1fxyz             0.156013       0.087219
                         11       1    1fxz2             0.156013       0.050356
                         11       1    1fy3              0.156013       0.022520
                         11       1    1fy2z             0.156013       0.050356
                         11       1    1fyz2             0.156013       0.050356
                         11       1    1fz3              0.156013       0.022520

                         12       1    1hx5              0.161413       0.001978
                         12       1    1hx4y             0.161413       0.005933
                         12       1    1hx4z             0.161413       0.005933
                         12       1    1hx3y2            0.161413       0.009063
                         12       1    1hx3yz            0.161413       0.015697
                         12       1    1hx3z2            0.161413       0.009063
                         12       1    1hx2y3            0.161413       0.009063
                         12       1    1hx2y2z           0.161413       0.020265
                         12       1    1hx2yz2           0.161413       0.020265
                         12       1    1hx2z3            0.161413       0.009063
                         12       1    1hxy4             0.161413       0.005933
                         12       1    1hxy3z            0.161413       0.015697
                         12       1    1hxy2z2           0.161413       0.020265
                         12       1    1hxyz3            0.161413       0.015697
                         12       1    1hxz4             0.161413       0.005933
                         12       1    1hy5              0.161413       0.001978
                         12       1    1hy4z             0.161413       0.005933
                         12       1    1hy3z2            0.161413       0.009063
                         12       1    1hy2z3            0.161413       0.009063
                         12       1    1hyz4             0.161413       0.005933
                         12       1    1hz5              0.161413       0.001978

                         13       1    1dx2              0.173452       0.076731
                         13       1    1dxy              0.173452       0.132903
                         13       1    1dxz              0.173452       0.132903
                         13       1    1dy2              0.173452       0.076731
                         13       1    1dyz              0.173452       0.132903
                         13       1    1dz2              0.173452       0.076731

                         14       1    1gx4              0.196188       0.012627
                         14       1    1gx3y             0.196188       0.033407
                         14       1    1gx3z             0.196188       0.033407
                         14       1    1gx2y2            0.196188       0.043128
                         14       1    1gx2yz            0.196188       0.074700
                         14       1    1gx2z2            0.196188       0.043128
                         14       1    1gxy3             0.196188       0.033407
                         14       1    1gxy2z            0.196188       0.074700
                         14       1    1gxyz2            0.196188       0.074700
                         14       1    1gxz3             0.196188       0.033407
                         14       1    1gy4              0.196188       0.012627
                         14       1    1gy3z             0.196188       0.033407
                         14       1    1gy2z2            0.196188       0.043128
                         14       1    1gyz3             0.196188       0.033407
                         14       1    1gz4              0.196188       0.012627

                         15       1    1px               0.223276       0.218772
                         15       1    1py               0.223276       0.218772
                         15       1    1pz               0.223276       0.218772

                         16       1    1s                0.246901       0.249633

                         17       1    1fx3              0.259280       0.070621
                         17       1    1fx2y             0.259280       0.157914
                         17       1    1fx2z             0.259280       0.157914
                         17       1    1fxy2             0.259280       0.157914
                         17       1    1fxyz             0.259280       0.273515
                         17       1    1fxz2             0.259280       0.157914
                         17       1    1fy3              0.259280       0.070621
                         17       1    1fy2z             0.259280       0.157914
                         17       1    1fyz2             0.259280       0.157914
                         17       1    1fz3              0.259280       0.070621

                         18       1    1ix6              0.339630       0.007797
                         18       1    1ix5y             0.339630       0.025861
                         18       1    1ix5z             0.339630       0.025861
                         18       1    1ix4y2            0.339630       0.044793
                         18       1    1ix4yz            0.339630       0.077583
                         18       1    1ix4z2            0.339630       0.044793
                         18       1    1ix3y3            0.339630       0.052999
                         18       1    1ix3y2z           0.339630       0.118510
                         18       1    1ix3yz2           0.339630       0.118510
                         18       1    1ix3z3            0.339630       0.052999
                         18       1    1ix2y4            0.339630       0.044793
                         18       1    1ix2y3z           0.339630       0.118510
                         18       1    1ix2y2z2          0.339630       0.152996
                         18       1    1ix2yz3           0.339630       0.118510
                         18       1    1ix2z4            0.339630       0.044793
                         18       1    1ixy5             0.339630       0.025861
                         18       1    1ixy4z            0.339630       0.077583
                         18       1    1ixy3z2           0.339630       0.118510
                         18       1    1ixy2z3           0.339630       0.118510
                         18       1    1ixyz4            0.339630       0.077583
                         18       1    1ixz5             0.339630       0.025861
                         18       1    1iy6              0.339630       0.007797
                         18       1    1iy5z             0.339630       0.025861
                         18       1    1iy4z2            0.339630       0.044793
                         18       1    1iy3z3            0.339630       0.052999
                         18       1    1iy2z4            0.339630       0.044793
                         18       1    1iyz5             0.339630       0.025861
                         18       1    1iz6              0.339630       0.007797

                         19       1    1dx2              0.339644       0.248715
                         19       1    1dxy              0.339644       0.430786
                         19       1    1dxz              0.339644       0.430786
                         19       1    1dy2              0.339644       0.248715
                         19       1    1dyz              0.339644       0.430786
                         19       1    1dz2              0.339644       0.248715

                         20       1    1s                0.380123       0.345027

                         21       1    1fx3              0.415519       0.204072
                         21       1    1fx2y             0.415519       0.456319
                         21       1    1fx2z             0.415519       0.456319
                         21       1    1fxy2             0.415519       0.456319
                         21       1    1fxyz             0.415519       0.790368
                         21       1    1fxz2             0.415519       0.456319
                         21       1    1fy3              0.415519       0.204072
                         21       1    1fy2z             0.415519       0.456319
                         21       1    1fyz2             0.415519       0.456319
                         21       1    1fz3              0.415519       0.204072

                         22       1    1hx5              0.427119       0.046733
                         22       1    1hx4y             0.427119       0.140200
                         22       1    1hx4z             0.427119       0.140200
                         22       1    1hx3y2            0.427119       0.214160
                         22       1    1hx3yz            0.427119       0.370935
                         22       1    1hx3z2            0.427119       0.214160
                         22       1    1hx2y3            0.427119       0.214160
                         22       1    1hx2y2z           0.427119       0.478876
                         22       1    1hx2yz2           0.427119       0.478876
                         22       1    1hx2z3            0.427119       0.214160
                         22       1    1hxy4             0.427119       0.140200
                         22       1    1hxy3z            0.427119       0.370935
                         22       1    1hxy2z2           0.427119       0.478876
                         22       1    1hxyz3            0.427119       0.370935
                         22       1    1hxz4             0.427119       0.140200
                         22       1    1hy5              0.427119       0.046733
                         22       1    1hy4z             0.427119       0.140200
                         22       1    1hy3z2            0.427119       0.214160
                         22       1    1hy2z3            0.427119       0.214160
                         22       1    1hyz4             0.427119       0.140200
                         22       1    1hz5              0.427119       0.046733

                         23       1    1gx4              0.434910       0.112729
                         23       1    1gx3y             0.434910       0.298252
                         23       1    1gx3z             0.434910       0.298252
                         23       1    1gx2y2            0.434910       0.385041
                         23       1    1gx2yz            0.434910       0.666911
                         23       1    1gx2z2            0.434910       0.385041
                         23       1    1gxy3             0.434910       0.298252
                         23       1    1gxy2z            0.434910       0.666911
                         23       1    1gxyz2            0.434910       0.666911
                         23       1    1gxz3             0.434910       0.298252
                         23       1    1gy4              0.434910       0.112729
                         23       1    1gy3z             0.434910       0.298252
                         23       1    1gy2z2            0.434910       0.385041
                         23       1    1gyz3             0.434910       0.298252
                         23       1    1gz4              0.434910       0.112729

                         24       1    1px               0.520190       0.629713
                         24       1    1py               0.520190       0.629713
                         24       1    1pz               0.520190       0.629713

                         25       1    1hx5              0.598672       0.140026
                         25       1    1hx4y             0.598672       0.420078
                         25       1    1hx4z             0.598672       0.420078
                         25       1    1hx3y2            0.598672       0.641679
                         25       1    1hx3yz            0.598672       1.111421
                         25       1    1hx3z2            0.598672       0.641679
                         25       1    1hx2y3            0.598672       0.641679
                         25       1    1hx2y2z           0.598672       1.434838
                         25       1    1hx2yz2           0.598672       1.434838
                         25       1    1hx2z3            0.598672       0.641679
                         25       1    1hxy4             0.598672       0.420078
                         25       1    1hxy3z            0.598672       1.111421
                         25       1    1hxy2z2           0.598672       1.434838
                         25       1    1hxyz3            0.598672       1.111421
                         25       1    1hxz4             0.598672       0.420078
                         25       1    1hy5              0.598672       0.140026
                         25       1    1hy4z             0.598672       0.420078
                         25       1    1hy3z2            0.598672       0.641679
                         25       1    1hy2z3            0.598672       0.641679
                         25       1    1hyz4             0.598672       0.420078
                         25       1    1hz5              0.598672       0.140026

                         26       1    1ix6              0.598672       0.065334
                         26       1    1ix5y             0.598672       0.216687
                         26       1    1ix5z             0.598672       0.216687
                         26       1    1ix4y2            0.598672       0.375313
                         26       1    1ix4yz            0.598672       0.650061
                         26       1    1ix4z2            0.598672       0.375313
                         26       1    1ix3y3            0.598672       0.444076
                         26       1    1ix3y2z           0.598672       0.992984
                         26       1    1ix3yz2           0.598672       0.992984
                         26       1    1ix3z3            0.598672       0.444076
                         26       1    1ix2y4            0.598672       0.375313
                         26       1    1ix2y3z           0.598672       0.992984
                         26       1    1ix2y2z2          0.598672       1.281937
                         26       1    1ix2yz3           0.598672       0.992984
                         26       1    1ix2z4            0.598672       0.375313
                         26       1    1ixy5             0.598672       0.216687
                         26       1    1ixy4z            0.598672       0.650061
                         26       1    1ixy3z2           0.598672       0.992984
                         26       1    1ixy2z3           0.598672       0.992984
                         26       1    1ixyz4            0.598672       0.650061
                         26       1    1ixz5             0.598672       0.216687
                         26       1    1iy6              0.598672       0.065334
                         26       1    1iy5z             0.598672       0.216687
                         26       1    1iy4z2            0.598672       0.375313
                         26       1    1iy3z3            0.598672       0.444076
                         26       1    1iy2z4            0.598672       0.375313
                         26       1    1iyz5             0.598672       0.216687
                         26       1    1iz6              0.598672       0.065334

                         27       1    1s                0.705917       0.548877

                         28       1    1fx3              0.764640       0.804883
                         28       1    1fx2y             0.764640       1.799773
                         28       1    1fx2z             0.764640       1.799773
                         28       1    1fxy2             0.764640       1.799773
                         28       1    1fxyz             0.764640       3.117298
                         28       1    1fxz2             0.764640       1.799773
                         28       1    1fy3              0.764640       0.804883
                         28       1    1fy2z             0.764640       1.799773
                         28       1    1fyz2             0.764640       1.799773
                         28       1    1fz3              0.764640       0.804883

                         29       1    1dx2              0.771893       1.046247
                         29       1    1dxy              0.771893       1.812154
                         29       1    1dxz              0.771893       1.812154
                         29       1    1dy2              0.771893       1.046247
                         29       1    1dyz              0.771893       1.812154
                         29       1    1dz2              0.771893       1.046247

                         30       1    1gx4              0.856517       0.726874
                         30       1    1gx3y             0.856517       1.923129
                         30       1    1gx3z             0.856517       1.923129
                         30       1    1gx2y2            0.856517       2.482749
                         30       1    1gx2yz            0.856517       4.300247
                         30       1    1gx2z2            0.856517       2.482749
                         30       1    1gxy3             0.856517       1.923129
                         30       1    1gxy2z            0.856517       4.300247
                         30       1    1gxyz2            0.856517       4.300247
                         30       1    1gxz3             0.856517       1.923129
                         30       1    1gy4              0.856517       0.726874
                         30       1    1gy3z             0.856517       1.923129
                         30       1    1gy2z2            0.856517       2.482749
                         30       1    1gyz3             0.856517       1.923129
                         30       1    1gz4              0.856517       0.726874

                         31       1    1px               1.029950       1.478973
                         31       1    1py               1.029950       1.478973
                         31       1    1pz               1.029950       1.478973

                         32       1    1hx5              1.185280       1.289028
                         32       1    1hx4y             1.185280       3.867083
                         32       1    1hx4z             1.185280       3.867083
                         32       1    1hx3y2            1.185280       5.907067
                         32       1    1hx3yz            1.185280      10.231341
                         32       1    1hx3z2            1.185280       5.907067
                         32       1    1hx2y3            1.185280       5.907067
                         32       1    1hx2y2z           1.185280      13.208604
                         32       1    1hx2yz2           1.185280      13.208604
                         32       1    1hx2z3            1.185280       5.907067
                         32       1    1hxy4             1.185280       3.867083
                         32       1    1hxy3z            1.185280      10.231341
                         32       1    1hxy2z2           1.185280      13.208604
                         32       1    1hxyz3            1.185280      10.231341
                         32       1    1hxz4             1.185280       3.867083
                         32       1    1hy5              1.185280       1.289028
                         32       1    1hy4z             1.185280       3.867083
                         32       1    1hy3z2            1.185280       5.907067
                         32       1    1hy2z3            1.185280       5.907067
                         32       1    1hyz4             1.185280       3.867083
                         32       1    1hz5              1.185280       1.289028

                         33       1    1fx3              1.349290       2.888626
                         33       1    1fx2y             1.349290       6.459165
                         33       1    1fx2z             1.349290       6.459165
                         33       1    1fxy2             1.349290       6.459165
                         33       1    1fxyz             1.349290      11.187602
                         33       1    1fxz2             1.349290       6.459165
                         33       1    1fy3              1.349290       2.888626
                         33       1    1fy2z             1.349290       6.459165
                         33       1    1fyz2             1.349290       6.459165
                         33       1    1fz3              1.349290       2.888626

                         34       1    1dx2              1.351630       2.788757
                         34       1    1dxy              1.351630       4.830269
                         34       1    1dxz              1.351630       4.830269
                         34       1    1dy2              1.351630       2.788757
                         34       1    1dyz              1.351630       4.830269
                         34       1    1dz2              1.351630       2.788757

                         35       1    1s                1.423940       0.929028

                         36       1    1gx4              1.819640       5.772919
                         36       1    1gx3y             1.819640      15.273709
                         36       1    1gx3z             1.819640      15.273709
                         36       1    1gx2y2            1.819640      19.718273
                         36       1    1gx2yz            1.819640      34.153051
                         36       1    1gx2z2            1.819640      19.718273
                         36       1    1gxy3             1.819640      15.273709
                         36       1    1gxy2z            1.819640      34.153051
                         36       1    1gxyz2            1.819640      34.153051
                         36       1    1gxz3             1.819640      15.273709
                         36       1    1gy4              1.819640       5.772919
                         36       1    1gy3z             1.819640      15.273709
                         36       1    1gy2z2            1.819640      19.718273
                         36       1    1gyz3             1.819640      15.273709
                         36       1    1gz4              1.819640       5.772919

                         37       1    1px               2.347260       4.141347
                         37       1    1py               2.347260       4.141347
                         37       1    1pz               2.347260       4.141347

                         38       1    1dx2              2.681530       9.248666
                         38       1    1dxy              2.681530      16.019160
                         38       1    1dxz              2.681530      16.019160
                         38       1    1dy2              2.681530       9.248666
                         38       1    1dyz              2.681530      16.019160
                         38       1    1dz2              2.681530       9.248666

                         39       1    1s                2.891360       1.580290

                         40       1    1fx3              3.229490      20.582865
                         40       1    1fx2y             3.229490      46.024685
                         40       1    1fx2z             3.229490      46.024685
                         40       1    1fxy2             3.229490      46.024685
                         40       1    1fxyz             3.229490      79.717093
                         40       1    1fxz2             3.229490      46.024685
                         40       1    1fy3              3.229490      20.582865
                         40       1    1fy2z             3.229490      46.024685
                         40       1    1fyz2             3.229490      46.024685
                         40       1    1fz3              3.229490      20.582865

                         41       1    1px               6.081490      13.612960
                         41       1    1py               6.081490      13.612960
                         41       1    1pz               6.081490      13.612960

                         42       1    1dx2              6.963580      49.132227
                         42       1    1dxy              6.963580      85.099514
                         42       1    1dxz              6.963580      85.099514
                         42       1    1dy2              6.963580      49.132227
                         42       1    1dyz              6.963580      85.099514
                         42       1    1dz2              6.963580      49.132227

                         43       1    1s                7.795370       3.324969

                         44       1    1px              20.093900      60.641563
                         44       1    1py              20.093900      60.641563
                         44       1    1pz              20.093900      60.641563

                         45       1    1s               24.228600       7.783167

                         46       1    1s              115.553000      25.118634

       Atomic covalent radius [Angstrom]:                                  1.230

       Atomic van der Waals radius [Angstrom]:                             1.820

     The atoms of this atomic kind are PAW atoms (GAPW):
       Hard Gaussian function radius:                                      1.512
       Rho0 radius:                                                        1.512
       Maximum GTO radius used for PAW projector construction:            24.566

     GAPW Soft Basis Set                                        aug-cc-pVDZ_soft

       Number of orbital shell sets:                                           6
       Number of orbital shells:                                               9
       Number of primitive Cartesian functions:                               12
       Number of Cartesian basis functions:                                   25
       Number of spherical basis functions:                                   23
       Norm type:                                                              2

       Normalised Cartesian orbitals:

                        Set   Shell   Orbital            Exponent    Coefficient

                          1       1    1px               0.005800       0.002282
                          1       1    1py               0.005800       0.002282
                          1       1    1pz               0.005800       0.002282

                          2       1    1s                0.008600       0.020127

                          3       1    1px               1.534000       0.055444
                                                         0.274900       0.039469
                                                         0.073620       0.027351
                                                         0.024030       0.006857
                          3       1    1py               1.534000       0.055444
                                                         0.274900       0.039469
                                                         0.073620       0.027351
                                                         0.024030       0.006857
                          3       1    1pz               1.534000       0.055444
                                                         0.274900       0.039469
                                                         0.073620       0.027351
                                                         0.024030       0.006857

                          3       2    2px               1.534000       0.000000
                                                         0.274900       0.000000
                                                         0.073620       0.000000
                                                         0.024030       0.013486
                          3       2    2py               1.534000       0.000000
                                                         0.274900       0.000000
                                                         0.073620       0.000000
                                                         0.024030       0.013486
                          3       2    2pz               1.534000       0.000000
                                                         0.274900       0.000000
                                                         0.073620       0.000000
                                                         0.024030       0.013486

                          4       1    1s                1.580000       0.455113
                                                         0.564000       0.127452
                                                         0.073450       0.000981
                                                         0.028050      -0.000155

                          4       2    2s                1.580000      -0.096431
                                                         0.564000      -0.063259
                                                         0.073450       0.057829
                                                         0.028050       0.025287

                          4       3    3s                1.580000       0.000000
                                                         0.564000       0.000000
                                                         0.073450       0.000000
                                                         0.028050       0.048849

                          5       1    1dx2              0.073300       0.016996
                          5       1    1dxy              0.073300       0.029438
                          5       1    1dxz              0.073300       0.029438
                          5       1    1dy2              0.073300       0.016996
                          5       1    1dyz              0.073300       0.029438
                          5       1    1dz2              0.073300       0.016996

                          6       1    1dx2              0.114400       0.037039
                          6       1    1dxy              0.114400       0.064153
                          6       1    1dxz              0.114400       0.064153
                          6       1    1dy2              0.114400       0.037039
                          6       1    1dyz              0.114400       0.064153
                          6       1    1dz2              0.114400       0.037039

     AE Potential information for                                            ALL

       Description:                                       All-electron potential
                                          Krack, Parrinello, PCCP 2, 2105 (2000)

       Gaussian exponent of the core charge distribution:               3.125000
       Electronic configuration (s p d ...):                           3   0   0


 MOLECULE KIND INFORMATION


 All atoms are their own molecule, skipping detailed information


 TOTAL NUMBERS AND MAXIMUM NUMBERS

  Total number of            - Atomic kinds:                                   1
                             - Atoms:                                          2
                             - Shell sets:                                    12
                             - Shells:                                        18
                             - Primitive Cartesian functions:                 34
                             - Cartesian basis functions:                     50
                             - Spherical basis functions:                     46

  Maximum angular momentum of the orbital basis functions:                     2


 MODULE QUICKSTEP: ATOMIC COORDINATES IN ANGSTROM

   Atom Kind Element         X             Y             Z       Z(eff)     Mass
      1    1 li    3     15.000000     15.000000     16.394718   3.0000   6.9410
      2    1 li    3     15.000000     15.000000     13.605282   3.0000   6.9410



 SCF PARAMETERS         Density guess:                                    ATOMIC
                        --------------------------------------------------------
                        max_scf:                                             500
                        max_scf_history:                                       0
                        max_diis:                                              4
                        --------------------------------------------------------
                        eps_scf:                                        1.00E-06
                        eps_scf_history:                                0.00E+00
                        eps_diis:                                       1.00E-01
                        eps_eigval:                                     1.00E-05
                        --------------------------------------------------------
                        level_shift [a.u.]:                             0.000000
                        added MOs                                        43    0
                        --------------------------------------------------------
                        Mixing method:                            BROYDEN_MIXING
                                                charge density mixing in g-space
                        --------------------------------------------------------
                        Smear method:                                FERMI_DIRAC
                        Electronic temperature [K]:                        300.0
                        Electronic temperature [a.u.]:                  9.50E-04
                        Accuracy threshold:                             1.00E-10
                        --------------------------------------------------------
                        No outer SCF

 PW_GRID| Information for grid number                                          1
 PW_GRID| Grid distributed over                                    24 processors
 PW_GRID| Real space group dimensions                                    24    1
 PW_GRID| the grid is blocked:                                                NO
 PW_GRID| Cutoff [a.u.]                                                    250.0
 PW_GRID| spherical cutoff:                                                   NO
 PW_GRID|   Bounds   1           -202     202                Points:         405
 PW_GRID|   Bounds   2           -202     202                Points:         405
 PW_GRID|   Bounds   3           -202     202                Points:         405
 PW_GRID| Volume element (a.u.^3)  0.2743E-02     Volume (a.u.^3)    182205.0337
 PW_GRID| Grid span                                                    FULLSPACE
 PW_GRID|   Distribution                         Average         Max         Min
 PW_GRID|   G-Vectors                          2767921.9     2768175     2767770
 PW_GRID|   G-Rays                                6834.4        6835        6834
 PW_GRID|   Real Space Points                  2767921.9     2788425     2624400

 PW_GRID| Information for grid number                                          2
 PW_GRID| Number of the reference grid                                         1
 PW_GRID| Grid distributed over                                    24 processors
 PW_GRID| Real space group dimensions                                    24    1
 PW_GRID| the grid is blocked:                                                NO
 PW_GRID| Cutoff [a.u.]                                                     83.3
 PW_GRID| spherical cutoff:                                                   NO
 PW_GRID|   Bounds   1           -120     119                Points:         240
 PW_GRID|   Bounds   2           -120     119                Points:         240
 PW_GRID|   Bounds   3           -120     119                Points:         240
 PW_GRID| Volume element (a.u.^3)  0.1318E-01     Volume (a.u.^3)    182205.0337
 PW_GRID| Grid span                                                    FULLSPACE
 PW_GRID|   Distribution                         Average         Max         Min
 PW_GRID|   G-Vectors                           576000.0      576240      575760
 PW_GRID|   G-Rays                                2400.0        2401        2399
 PW_GRID|   Real Space Points                   576000.0      576000      576000

 PW_GRID| Information for grid number                                          3
 PW_GRID| Number of the reference grid                                         1
 PW_GRID| Grid distributed over                                    24 processors
 PW_GRID| Real space group dimensions                                    24    1
 PW_GRID| the grid is blocked:                                                NO
 PW_GRID| Cutoff [a.u.]                                                     27.8
 PW_GRID| spherical cutoff:                                                   NO
 PW_GRID|   Bounds   1            -67      67                Points:         135
 PW_GRID|   Bounds   2            -67      67                Points:         135
 PW_GRID|   Bounds   3            -67      67                Points:         135
 PW_GRID| Volume element (a.u.^3)  0.7406E-01     Volume (a.u.^3)    182205.0337
 PW_GRID| Grid span                                                    FULLSPACE
 PW_GRID|   Distribution                         Average         Max         Min
 PW_GRID|   G-Vectors                           102515.6      102735      102330
 PW_GRID|   G-Rays                                 759.4         761         758
 PW_GRID|   Real Space Points                   102515.6      109350       91125

 PW_GRID| Information for grid number                                          4
 PW_GRID| Number of the reference grid                                         1
 PW_GRID| Grid distributed over                                    24 processors
 PW_GRID| Real space group dimensions                                    24    1
 PW_GRID| the grid is blocked:                                                NO
 PW_GRID| Cutoff [a.u.]                                                      9.3
 PW_GRID| spherical cutoff:                                                   NO
 PW_GRID|   Bounds   1            -40      39                Points:          80
 PW_GRID|   Bounds   2            -40      39                Points:          80
 PW_GRID|   Bounds   3            -40      39                Points:          80
 PW_GRID| Volume element (a.u.^3)  0.3559         Volume (a.u.^3)    182205.0337
 PW_GRID| Grid span                                                    FULLSPACE
 PW_GRID|   Distribution                         Average         Max         Min
 PW_GRID|   G-Vectors                            21333.3       21360       21280
 PW_GRID|   G-Rays                                 266.7         267         266
 PW_GRID|   Real Space Points                    21333.3       25600       19200

 POISSON| Solver                                                         WAVELET
 POISSON| Wavelet| Scaling function                                           40
 POISSON| Periodicity                                                       NONE

 RS_GRID| Information for grid number                                          1
 RS_GRID|   Bounds   1           -202     202                Points:         405
 RS_GRID|   Bounds   2           -202     202                Points:         405
 RS_GRID|   Bounds   3           -202     202                Points:         405
 RS_GRID| Real space distribution over                                  4 groups
 RS_GRID| Real space distribution along direction                              2
 RS_GRID| Border size                                                         33
 RS_GRID| Real space distribution over                                  6 groups
 RS_GRID| Real space distribution along direction                              3
 RS_GRID| Border size                                                         33
 RS_GRID|   Distribution                         Average         Max         Min
 RS_GRID|   Planes                                 167.2         168         167
 RS_GRID|   Distribution                         Average         Max         Min
 RS_GRID|   Planes                                 133.5         134         133

 RS_GRID| Information for grid number                                          2
 RS_GRID|   Bounds   1           -120     119                Points:         240
 RS_GRID|   Bounds   2           -120     119                Points:         240
 RS_GRID|   Bounds   3           -120     119                Points:         240
 RS_GRID| Real space distribution over                                  4 groups
 RS_GRID| Real space distribution along direction                              2
 RS_GRID| Border size                                                         37
 RS_GRID| Real space distribution over                                  6 groups
 RS_GRID| Real space distribution along direction                              3
 RS_GRID| Border size                                                         37
 RS_GRID|   Distribution                         Average         Max         Min
 RS_GRID|   Planes                                 134.0         134         134
 RS_GRID|   Distribution                         Average         Max         Min
 RS_GRID|   Planes                                 114.0         114         114

 RS_GRID| Information for grid number                                          3
 RS_GRID|   Bounds   1            -67      67                Points:         135
 RS_GRID|   Bounds   2            -67      67                Points:         135
 RS_GRID|   Bounds   3            -67      67                Points:         135
 RS_GRID| Real space fully replicated
 RS_GRID| Group size                                                           1

 RS_GRID| Information for grid number                                          4
 RS_GRID|   Bounds   1            -40      39                Points:          80
 RS_GRID|   Bounds   2            -40      39                Points:          80
 RS_GRID|   Bounds   3            -40      39                Points:          80
 RS_GRID| Real space fully replicated
 RS_GRID| Group size                                                           1

  HFX_INFO| Replica ID:                                                        1
  HFX_INFO| FRACTION:                                               0.2500000000
  HFX_INFO| Interaction Potential:                                       COULOMB
  HFX_INFO| EPS_SCHWARZ:                                                 1.0E-10
  HFX_INFO| EPS_SCHWARZ_FORCES                                           1.0E-08
  HFX_INFO| EPS_STORAGE_SCALING:                                         1.0E+00
  HFX_INFO| NBINS:                                                            64
  HFX_INFO| BLOCK_SIZE:                                                        1
  HFX_INFO| Number of periodic shells considered:                           NONE
  HFX_INFO| Number of periodic cells considered:                            NONE

 
 RI-RPA| using GPW style
 

 OVERLAP MATRIX CONDITION NUMBER
 1-Norm Condition Number (Estimate)
   CN : |A|*|A^-1|:  6.689E+000 *  1.268E+003   = 8.483E+003  Log(1-CN):  3.9286
 1-Norm and 2-Norm Condition Numbers using Diagonalization
   CN : |A|*|A^-1|:  6.689E+000 *  1.268E+003   = 8.483E+003  Log(1-CN):  3.9286
   CN : max/min ev:  5.052E+000 /  1.116E-003   = 4.528E+003  Log(2-CN):  3.6559

 Number of electrons:                                                          6
 Number of occupied orbitals:                                                  3
 Number of molecular orbitals:                                                46

 Number of orbital functions:                                                 46
 Number of independent orbital functions:                                     46

 Extrapolation method: initial_guess

 Atomic guess: The first density matrix is obtained in terms of atomic orbitals
               and electronic configurations assigned to each atomic kind

 Guess for atomic kind: li

 Electronic structure
    Total number of core electrons                                          0.00
    Total number of valence electrons                                       3.00
    Total number of electrons                                               3.00
    Multiplicity                                                   not specified
    S      2.00  1.00


 *******************************************************************************
                  Iteration          Convergence                     Energy [au]
 *******************************************************************************
                          1        0.731377E-02                  -7.331957752282
                          2        0.566709E-04                  -7.332066558964
                          3        0.445791E-05                  -7.332066611880
                          4        0.187558E-06                  -7.332066612041

 Energy components [Hartree]           Total Energy ::           -7.332066612041
                                        Band Energy ::           -3.825448788804
                                     Kinetic Energy ::            7.388577191559
                                   Potential Energy ::          -14.720643803600
                                      Virial (-V/T) ::            1.992351629001
                                        Core Energy ::           -9.692442909788
                                          XC Energy ::           -1.671208562372
                                     Coulomb Energy ::            4.031584860119

 Orbital energies  State     L     Occupation   Energy[a.u.]          Energy[eV]

                       1     0          2.000      -1.859817          -50.608187
                       2     0          1.000      -0.105815           -2.879382


 Total Electron Density at R=0:                                        13.167941
 Re-scaling the density matrix to get the right number of electrons
                  # Electrons              Trace(P)               Scaling factor
                            6                 6.000                        1.000


 SCF WAVEFUNCTION OPTIMIZATION

  Step     Update method      Time    Convergence         Total energy    Change
  ------------------------------------------------------------------------------

  HFX_MEM_INFO| Est. max. program size before HFX [MiB]:                    2138
  HFX_MEM_INFO| Number of cart. primitive ERI's calculated:             10852341
  HFX_MEM_INFO| Number of sph. ERI's calculated:                         1679046
  HFX_MEM_INFO| Number of sph. ERI's stored in-core:                     1679046
  HFX_MEM_INFO| Number of sph. ERI's stored on disk:                           0
  HFX_MEM_INFO| Number of sph. ERI's calculated on the fly:                    0
  HFX_MEM_INFO| Total memory consumption ERI's RAM [MiB]:                      7
  HFX_MEM_INFO| Whereof max-vals [MiB]:                                        1
  HFX_MEM_INFO| Total compression factor ERI's RAM:                         2.12
  HFX_MEM_INFO| Total memory consumption ERI's disk [MiB]:                     0
  HFX_MEM_INFO| Total compression factor ERI's disk:                        0.00
  HFX_MEM_INFO| Size of density/Fock matrix [MiB]:                             0
  HFX_MEM_INFO| Size of buffers [MiB]:                                         0
  HFX_MEM_INFO| Est. max. program size after HFX  [MiB]:                    2647

     1 NoMix/Diag. 0.10E+00    6.6     0.77767730       -14.9313753891 -1.49E+01
     2 Broy./Diag. 0.10E+00    5.1     0.11659303       -14.9103688570  2.10E-02
     3 Broy./Diag. 0.10E+00    5.1     0.05489416       -14.8865818196  2.38E-02
     4 Broy./Diag. 0.10E+00    5.3     0.02597879       -14.8741518367  1.24E-02
     5 Broy./Diag. 0.10E+00    5.2     0.01118996       -14.8682570549  5.89E-03
     6 Broy./Diag. 0.10E+00    5.1     0.00457035       -14.8656200917  2.64E-03
     7 Broy./Diag. 0.10E+00    5.2     0.02831033       -14.8739427918 -8.32E-03
     8 Broy./Diag. 0.10E+00    5.3     0.03676194       -14.8826000302 -8.66E-03
     9 Broy./Diag. 0.10E+00    5.5     0.02097875       -14.8917213122 -9.12E-03
    10 Broy./Diag. 0.10E+00    5.4     0.02211290       -14.8996223570 -7.90E-03
    11 Broy./Diag. 0.10E+00    5.3     0.06735079       -14.9182384342 -1.86E-02
    12 Broy./Diag. 0.10E+00    5.3     0.03724821       -14.9357976216 -1.76E-02
    13 Broy./Diag. 0.10E+00    5.3     0.01384976       -14.9435497763 -7.75E-03
    14 Broy./Diag. 0.10E+00    5.6     0.01286214       -14.9513389279 -7.79E-03
    15 Broy./Diag. 0.10E+00    5.7     0.01873155       -14.9576806494 -6.34E-03
    16 Broy./Diag. 0.10E+00    5.8     0.01048071       -14.9619051233 -4.22E-03
    17 Broy./Diag. 0.10E+00    5.9     0.00476625       -14.9621958968 -2.91E-04
    18 Broy./Diag. 0.10E+00    5.6     0.01182528       -14.9627922668 -5.96E-04
    19 Broy./Diag. 0.10E+00    5.6     0.00194540       -14.9641203969 -1.33E-03
    20 Broy./Diag. 0.10E+00    5.5     0.01158870       -14.9620067408  2.11E-03
    21 Broy./Diag. 0.10E+00    5.5     0.00108003       -14.9605974072  1.41E-03
    22 Broy./Diag. 0.10E+00    5.6     0.00788892       -14.9623747569 -1.78E-03
    23 Broy./Diag. 0.10E+00    5.4     0.00314650       -14.9639061387 -1.53E-03
    24 Broy./Diag. 0.10E+00    5.4     0.00142078       -14.9636723041  2.34E-04
    25 Broy./Diag. 0.10E+00    5.5     0.00181153       -14.9627470990  9.25E-04
    26 Broy./Diag. 0.10E+00    5.4     0.00060576       -14.9621989746  5.48E-04
    27 Broy./Diag. 0.10E+00    5.3     0.00190403       -14.9624142186 -2.15E-04
    28 Broy./Diag. 0.10E+00    5.4     0.00161885       -14.9628707964 -4.57E-04
    29 Broy./Diag. 0.10E+00    5.7     0.00021074       -14.9630332709 -1.62E-04
    30 Broy./Diag. 0.10E+00    5.8     0.00034043       -14.9629282056  1.05E-04
    31 Broy./Diag. 0.10E+00    5.7     0.00075049       -14.9629534747 -2.53E-05
    32 Broy./Diag. 0.10E+00    5.7     0.00073190       -14.9629941126 -4.06E-05
    33 Broy./Diag. 0.10E+00    5.6     0.00027820       -14.9629351088  5.90E-05
    34 Broy./Diag. 0.10E+00    5.6     0.00019310       -14.9628580329  7.71E-05
    35 Broy./Diag. 0.10E+00    5.5     0.00013101       -14.9629272728 -6.92E-05
    36 Broy./Diag. 0.10E+00    5.5     0.00040410       -14.9629278239 -5.51E-07
    37 Broy./Diag. 0.10E+00    5.6     0.00016428       -14.9628554419  7.24E-05
    38 Broy./Diag. 0.10E+00    5.4     0.00049123       -14.9629078414 -5.24E-05
    39 Broy./Diag. 0.10E+00    5.4     0.00021610       -14.9630053818 -9.75E-05
    40 Broy./Diag. 0.10E+00    5.4     0.00019244       -14.9629444888  6.09E-05
    41 Broy./Diag. 0.10E+00    5.6     0.00005484       -14.9628654285  7.91E-05
    42 Broy./Diag. 0.10E+00    5.6     0.00021953       -14.9628614239  4.00E-06
    43 Broy./Diag. 0.10E+00    5.7     0.00003768       -14.9628738100 -1.24E-05
    44 Broy./Diag. 0.10E+00    5.8     0.00009263       -14.9628459623  2.78E-05
    45 Broy./Diag. 0.10E+00    5.6     0.00010693       -14.9628083350  3.76E-05
    46 Broy./Diag. 0.10E+00    5.6     0.00009243       -14.9627774528  3.09E-05
    47 Broy./Diag. 0.10E+00    5.5     0.00010201       -14.9627529059  2.45E-05
    48 Broy./Diag. 0.10E+00    5.5     0.00018102       -14.9627408689  1.20E-05
    49 Broy./Diag. 0.10E+00    5.5     0.00002406       -14.9627476039 -6.73E-06
    50 Broy./Diag. 0.10E+00    5.4     0.00005148       -14.9627607313 -1.31E-05
    51 Broy./Diag. 0.10E+00    5.4     0.00006846       -14.9627573526  3.38E-06
    52 Broy./Diag. 0.10E+00    5.4     0.00004574       -14.9627432461  1.41E-05
    53 Broy./Diag. 0.10E+00    5.5     0.00003439       -14.9627337617  9.48E-06
    54 Broy./Diag. 0.10E+00    5.6     0.00002538       -14.9627367363 -2.97E-06
    55 Broy./Diag. 0.10E+00    5.6     0.00001578       -14.9627444531 -7.72E-06
    56 Broy./Diag. 0.10E+00    5.5     0.00003843       -14.9627447192 -2.66E-07
    57 Broy./Diag. 0.10E+00    5.6     0.00000403       -14.9627434153  1.30E-06
    58 Broy./Diag. 0.10E+00    5.9     0.00002742       -14.9627486982 -5.28E-06
    59 Broy./Diag. 0.10E+00    5.6     0.00000340       -14.9627527982 -4.10E-06
    60 Broy./Diag. 0.10E+00    5.8     0.00001425       -14.9627493643  3.43E-06
    61 Broy./Diag. 0.10E+00    5.6     0.00000369       -14.9627457815  3.58E-06
    62 Broy./Diag. 0.10E+00    5.6     0.00001583       -14.9627444343  1.35E-06
    63 Broy./Diag. 0.10E+00    5.6     0.00000475       -14.9627448613 -4.27E-07
    64 Broy./Diag. 0.10E+00    5.5     0.00000821       -14.9627417744  3.09E-06
    65 Broy./Diag. 0.10E+00    5.5     0.00000775       -14.9627390398  2.73E-06
[...]
 -------------------------------------------------------------------------------
 
 CP2K version 2025.1 (Development Version), the CP2K developers group (2025).
 CP2K is freely available from https://www.cp2k.org/ .
 
 T. D. Kuehne, M. Iannuzzi, M. Del Ben, V. V. Rybkin, P. Seewald, F. Stein, T. 
 Laino, R. Z. Khaliullin, O. Schuett, F. Schiffmann, D. Golze, J. Wilhelm, S. 
 Chulkov, M. H. Bani-Hashemian, V. Weber, U. Borstnik, M. Taillefumier, A. S. 
 Jakobovits, A. Lazzaro, H. Pabst, T. Mueller, R. Schade, M. Guidon, S. 
 Andermatt, N. Holmberg, G. K. Schenter, A. Hehn, A. Bussy, F. Belleflamme, G. 
 Tabacchi, A. Gloess, M. Lass, I. Bethune, C. J. Mundy, C. Plessl, M. Watkins, 
 J. VandeVondele, M. Krack, J. Hutter.
 J. Chem. Phys. 152, 194103 (2020).
 CP2K: An electronic structure and molecular dynamics software package - 
 Quickstep: Efficient and accurate electronic structure calculations.
 https://doi.org/10.1063/5.0007045

 J. Wilhelm, D. Golze, L. Talirz, J. Hutter, C. A. Pignedoli.
 J. Phys. Chem. Lett. 9, 306-312 (2018).
 Toward GW calculations on thousands of atoms.
 https://doi.org/10.1021/acs.jpclett.7b02740

 J. Wilhelm, J. Hutter.
 Phys. Rev. B 95, 235123 (2017).
 Periodic GW calculations in the Gaussian and plane-waves scheme.
 https://doi.org/10.1103/PhysRevB.95.235123

 O. Schuett, P. Messmer, J. Hutter, J. VandeVondele.
 Electronic Structure Calculations on Graphics Processing Units, 173-190 (2016).
 GPU-Accelerated Sparse Matrix-Matrix Multiplication for Linear Scaling Density 
 Functional Theory.
 https://doi.org/10.1002/9781118670712.ch8

 J. Wilhelm, M. Del Ben, J. Hutter.
 J. Chem. Theory Comput. 12, 3623-3635 (2016).
 GW in the Gaussian and plane waves scheme with application to linear acenes.
 https://doi.org/10.1021/acs.jctc.6b00380

 M. Del Ben, O. Schuett, T. Wentz, P. Messmer, J. Hutter, J. VandeVondele.
 Comput. Phys. Commun. 187, 120-129 (2015).
 Enabling simulation at the fifth rung of DFT: Large scale RPA calculations with 
 excellent time to solution.
 https://doi.org/10.1016/j.cpc.2014.10.021

 J. Hutter, M. Iannuzzi, F. Schiffmann, J. VandeVondele.
 WIREs Comput Mol Sci. 4, 15-25 (2014).
 CP2K: atomistic simulations of condensed matter systems.
 https://doi.org/10.1002/wcms.1159

 U. Borstnik, J. VandeVondele, V. Weber, J. Hutter.
 Parallel Comput. 40, 47-58 (2014).
 Sparse matrix multiplication: The distributed block-compressed sparse row 
 library.
 https://doi.org/10.1016/j.parco.2014.03.012

 M. Del Ben, J. Hutter, J. VandeVondele.
 J. Chem. Theory Comput. 9, 2654-2671 (2013).
 Electron Correlation in the Condensed Phase from a Resolution of Identity 
 Approach Based on the Gaussian and Plane Waves Scheme.
 https://doi.org/10.1021/ct4002202

 M. Del Ben, J. Hutter, J. VandeVondele.
 J. Chem. Theory Comput. 8, 4177-4188 (2012).
 Second-Order Moller-Plesset Perturbation Theory in the Condensed Phase: An 
 Efficient and Massively Parallel Gaussian and Plane Waves Approach.
 https://doi.org/10.1021/ct300531w

 M. Guidon, J. Hutter, J. VandeVondele.
 J. Chem. Theory Comput. 5, 3010-3021 (2009).
 Robust Periodic Hartree-Fock Exchange for Large-Scale Simulations Using 
 Gaussian Basis Sets.
 https://doi.org/10.1021/ct900494g

 M. Guidon, F. Schiffmann, J. Hutter, J. VandeVondele.
 J. Chem. Phys. 128, 214104 (2008).
 Ab initio molecular dynamics using hybrid density functionals.
 https://doi.org/10.1063/1.2931945

 L. Genovese, T. Deutsch, S. Goedecker.
 J. Chem. Phys. 127, 054704 (2007).
 Efficient and accurate three-dimensional Poisson solver for surface problems.
 https://doi.org/10.1063/1.2754685

 J. VandeVondele, J. Hutter.
 J. Chem. Phys. 127, 114105 (2007).
 Gaussian basis sets for accurate calculations on molecular systems in gas and 
 condensed phases.
 https://doi.org/10.1063/1.2770708

 L. Genovese, T. Deutsch, A. Neelov, S. Goedecker, G. Beylkin.
 J. Chem. Phys. 125, 074105 (2006).
 Efficient solution of Poisson's equation with free boundary conditions.
 https://doi.org/10.1063/1.2335442

 M. Frigo, S. G. Johnson.
 Proc. IEEE 93, 216-231 (2005).
 The design and implementation of FFTW3.
 https://doi.org/10.1109/JPROC.2004.840301

 M. Krack, M. Parrinello.
 Phys. Chem. Chem. Phys. 2, 2105-2112 (2000).
 All-electron ab-initio molecular dynamics.
 https://doi.org/10.1039/b001167n

 G. Lippert, J. Hutter, M. Parrinello.
 Theor. Chem. Acc. 103, 124-140 (1999).
 The Gaussian and augmented-plane-wave density functional method for ab initio 
 molecular dynamics simulations.
 https://doi.org/10.1007/s002140050523

 J. P. Perdew, K. Burke, M. Ernzerhof.
 Phys. Rev. Lett. 77, 3865-3868 (1996).
 Generalized gradient approximation made simple.
 https://doi.org/10.1103/PhysRevLett.77.3865


 -------------------------------------------------------------------------------
 -                                                                             -
 -                                T I M I N G                                  -
 -                                                                             -
 -------------------------------------------------------------------------------
 SUBROUTINE                       CALLS  ASD         SELF TIME        TOTAL TIME
                                MAXIMUM       AVERAGE  MAXIMUM  AVERAGE  MAXIMUM
 CP2K                                 1  1.0    0.042    0.064  439.349  439.349
 qs_energies                          1  2.0    0.001    0.001  437.762  438.006
 scf_env_do_scf                       1  3.0    0.000    0.000  432.475  432.476
 scf_env_do_scf_inner_loop           78  4.0    0.002    0.005  432.475  432.475
 qs_ks_build_kohn_sham_matrix        79  7.0    0.013    0.015  323.852  323.858
 qs_ks_update_qs_env                 78  5.0    0.001    0.001  321.395  321.401
 rebuild_ks_matrix                   78  6.0    0.000    0.000  321.390  321.396
 fft_wrap_pw1pw2                   1650  9.9    0.040    0.051  194.078  197.762
 fft_wrap_pw1pw2_250               1176 11.1    8.377    9.281  188.101  192.024
 fft3d_ps                          1650 11.9   83.763   86.187  153.503  157.303
 pw_poisson_solve                    79  8.0    3.484    3.577  132.927  132.961
 qs_vxc_create                       79  8.0    0.001    0.001  118.082  118.082
 xc_vxc_pw_create                    78  9.0    2.117    2.259  118.080  118.081
 ps_wavelet_solve                    79  9.0   73.983   80.636   89.419   89.649
 xc_pw_derive                       468 11.0    0.006    0.007   84.471   87.548
 mp_alltoall_d54                     79 10.0    9.982   70.345    9.982   70.345
 gspace_mixing                       77  5.0    1.639    1.742   61.641   61.641
 xc_rho_set_and_dset_create          78 10.0    1.482    1.644   58.246   61.575
 mp_alltoall_z22v                  1650 13.9   43.837   59.203   43.837   59.203
 xc_pw_divergence                    78 10.0    0.004    0.004   56.652   59.124
 qs_rho_update_rho_low               79  5.0    0.001    0.001   49.550   49.550
 calculate_rho_elec                  79  6.0    1.795    1.927   49.493   49.493
 broyden_mixing                      77  6.0   45.373   46.699   46.808   47.356
 yz_to_x                            787 12.8    8.249   10.160   31.194   40.722
 x_to_yz                            863 13.1   17.630   18.018   38.522   39.700
 density_rs2pw                       79  7.0    0.006    0.006   36.760   37.288
 sum_up_and_integrate                79  8.0    0.001    0.002   26.508   26.545
 integrate_v_rspace                  79  9.0    0.002    0.003   26.025   26.095
 potential_pw2rs                     79 10.0    0.072    0.084   25.323   25.408
 prepare_gapw_den                    79  8.0    0.001    0.001   20.326   20.563
 put_rho0_on_grid                    79  9.0    1.676    1.784   20.060   20.297
 xc_functional_eval                 234 10.9    0.001    0.001   13.302   16.423
 pbe_lda_eval                       234 11.9   13.301   16.422   13.301   16.422
 transfer_pw2rs                     396 10.6    0.007    0.007   14.500   14.600
 pw_scatter_p                       863 12.1   13.826   14.188   13.826   14.188
 transfer_rs2pw                     396  8.4    0.010    0.013   12.297   12.770
 pw_gather_p                        787 11.8   11.530   12.363   11.530   12.363
 mp_waitany                       13328 11.5   10.203   11.276   10.203   11.276
 transfer_pw2rs_250                 159 11.0    3.877    4.143   10.472   10.683
 grid_collocate_task_list            79  7.0   10.304   10.566   10.304   10.566
 pw_derive                          705 11.3    9.389    9.879    9.389    9.879
 transfer_rs2pw_250                 159 10.0    3.798    3.985    9.009    9.522
 mp_sum_d                          1932  6.4    4.370    7.418    4.370    7.418
 integrate_vhg0_rspace               79  8.0    0.027    0.035    6.581    6.592
 mp_alltoall_d45                     80 10.0    4.545    5.861    4.545    5.861
 fft_wrap_pw1pw2_90                 158 10.5    0.245    0.315    4.890    5.790
 cp2k_distribution_to_z_slices       79  9.0    3.178    3.307    5.023    5.537
 pw_copy                           1180 10.6    4.986    5.288    4.986    5.288
 pw_poisson_set                      80  8.9    0.003    0.003    4.680    4.714
 mp_alltoall_d11v                  1840  9.7    3.315    4.638    3.315    4.638
 pw_copy_to_array                   787 11.8    4.139    4.497    4.139    4.497
 mp2_main                             1  3.0    0.000    0.001    4.039    4.283
 hfx_ks_matrix                       79  8.0    0.003    0.004    4.093    4.192
 integrate_four_center               79  9.0    1.563    3.269    4.089    4.187
 pw_axpy                            785  9.3    3.450    3.740    3.450    3.740
 mp_sync                            839  9.5    2.067    3.630    2.067    3.630
 rs_grid_zero                       397 11.2    3.286    3.368    3.286    3.368
 pw_integral_ab_c1d_c1d_gs           79  9.0    2.364    2.659    2.759    2.905
 pw_copy_from_array                 863 12.1    2.369    2.846    2.369    2.846
 compute_vec_Sigma_x_minus_vxc_       1  4.0    0.000    0.000    2.465    2.466
 mp_sum_dm                          557  7.6    1.298    2.246    1.298    2.246
 transfer_pw2rs_90                   79 12.0    0.628    0.674    2.047    2.206
 pw_poisson_rebuild                  79  9.0    0.000    0.000    1.824    1.862
 ps_wavelet_create                    1 10.0    0.000    0.000    1.824    1.862
 RS_z_slice_distribution              1 11.0    1.673    1.733    1.824    1.862
 transfer_rs2pw_90                   79  9.0    0.494    0.523    1.586    1.822
 pw_zero                            470 10.3    1.567    1.652    1.567    1.652
 mp_isend_dv                      13454 11.6    1.062    1.608    1.062    1.608
 transfer_pw2rs_30                   79 12.0    0.893    0.948    1.517    1.608
 mp_waitall_1                     17446 12.1    0.999    1.434    0.999    1.434
 mp2_gpw_main                         1  4.0    0.000    0.000    1.396    1.407
 transfer_rs2pw_30                   79  9.0    0.699    0.726    1.346    1.368
 rpa_ri_compute_en                    1  5.0    0.000    0.001    1.164    1.164
 rpa_num_int                          1  6.0    0.001    0.001    1.153    1.153
 scale_and_distribute               158 10.0    1.059    1.140    1.059    1.140
 Vh_1c_gg_integrals                  79  8.0    0.008    0.051    0.376    1.106
 mp_max_i                           556  3.0    0.607    1.100    0.607    1.100
 calculate_vxc_atom                  79  8.0    0.019    0.134    1.064    1.064
 init_scf_run                         1  3.0    0.000    0.000    1.006    1.007
 scf_env_initial_rho_setup            1  4.0    0.000    0.000    1.000    1.001
 mp_irecv_dm3                      1904 11.5    0.530    0.923    0.530    0.923
 mp_isend_dm3                      1904 11.5    0.481    0.922    0.481    0.922
 mp_sendrecv_dv                    3634 10.0    0.860    0.904    0.860    0.904
 fft_wrap_pw1pw2_30                 158 10.5    0.039    0.043    0.850    0.886
 qs_init_subsys                       1  2.0    0.007    0.009    0.875    0.876
 qs_env_setup                         1  3.0    0.000    0.000    0.864    0.866
 qs_env_rebuild_pw_env                2  3.5    0.000    0.000    0.863    0.865
 pw_env_rebuild                       1  5.0    0.001    0.001    0.862    0.864
 gaVxcgb_GC                          78  9.0    0.067    0.848    0.067    0.848
 pw_grid_setup                        4  6.0    0.000    0.000    0.836    0.837
 pw_grid_setup_internal               4  7.0    0.020    0.024    0.836    0.837
 compute_GW_self_energy             100  7.0    0.001    0.002    0.744    0.773
 grid_integrate_task_list            79 10.0    0.435    0.689    0.435    0.689
 rs_gather_matrices                  79 10.0    0.001    0.005    0.265    0.676
 pw_grid_sort                         4  8.0    0.471    0.476    0.667    0.674
 qs_scf_new_mos                      78  5.0    0.001    0.001    0.565    0.572
 compute_GW_self_energy_deep        100  8.0    0.208    0.233    0.490    0.518
 mp_sum_dv                         2404 10.8    0.378    0.510    0.378    0.510
 transfer_pw2rs_10                   79 12.0    0.196    0.203    0.459    0.508
 pw_scale                           313  9.5    0.422    0.499    0.422    0.499
 integrate_four_center_main          79 10.0    0.019    0.114    0.048    0.476
 mp_isendrecv_dv                   7268 12.0    0.247    0.466    0.247    0.466
 parallel_gemm_fm                   375  8.4    0.001    0.001    0.412    0.417
 parallel_gemm_fm_gemm              375  9.4    0.001    0.001    0.412    0.417
 cp_fm_gemm                         375 10.4    0.411    0.416    0.411    0.416
 integrate_four_center_bin         6188 11.0    0.029    0.407    0.029    0.407
 mp_sum_i                            17  9.9    0.245    0.403    0.245    0.403
 restraint_control                    1  2.0    0.000    0.000    0.244    0.402
 mp2_main_alloc_hfx                   1  4.0    0.158    0.402    0.158    0.402
 transfer_rs2pw_10                   79  9.0    0.133    0.139    0.346    0.356
 create_qs_kind_set                   1  2.0    0.000    0.000    0.354    0.354
 read_qs_kind                         1  3.0    0.189    0.235    0.354    0.354
 rpa_num_int_RPA_matrix_operati     100  7.0    0.001    0.002    0.333    0.334
 eigensolver_symm                    79  6.0    0.003    0.003    0.306    0.307
 cp_fm_syevd                         84  7.0    0.001    0.001    0.298    0.298
 mixing_init                          1  5.0    0.291    0.296    0.296    0.296
 xc_pw_smooth                        78 10.0    0.000    0.000    0.214    0.275
 cp_fm_redistribute_end              84  8.0    0.140    0.250    0.141    0.251
 calc_screening_functions             1 10.0    0.099    0.112    0.216    0.244
 powell_optimize                  77578 11.0    0.214    0.242    0.214    0.242
 calculate_rho_atom                  79  9.0    0.123    0.237    0.123    0.237
 fft_wrap_pw1pw2_10                 158 10.5    0.009    0.011    0.198    0.222
 cp_fm_cholesky_invert              101  8.0    0.211    0.221    0.211    0.221
 cp_fm_syevd_base                    84  8.0    0.109    0.219    0.109    0.219
 mp2_ri_gpw_compute_in                1  5.0    0.000    0.000    0.215    0.215
 dbcsr_multiply_generic             251  8.0    0.009    0.010    0.208    0.215
 sort_shells                          4  9.0    0.196    0.199    0.196    0.199
 mp2_ri_gpw_compute_in_loop           1  6.0    0.000    0.001    0.198    0.198
 calculate_dm_sparse                 78  6.0    0.001    0.001    0.188    0.189
 cp_dbcsr_plus_fm_fm_t               78  7.0    0.001    0.001    0.187    0.188
 cp_fm_cholesky_decompose           102  9.0    0.176    0.177    0.176    0.177
 compute_Erpa_by_freq_int           100  8.0    0.001    0.002    0.175    0.175
 parser_read_line                 39136  4.0    0.014    0.016    0.165    0.171
 calc_pair_dist_radii                 1 10.0    0.050    0.057    0.147    0.167
 scf_post_calculation_gpw             1  3.0    0.000    0.000    0.161    0.161
 write_available_results              1  4.0    0.000    0.000    0.161    0.161
 write_mo_free_results                1  5.0    0.028    0.032    0.161    0.161
 parser_read_line_low                44  5.0    0.013    0.066    0.151    0.158
 calc_mat_Q                         100  8.0    0.000    0.000    0.153    0.154
 contract_S_to_Q                    100  9.0    0.000    0.001    0.152    0.153
 broadcast_input_information         44  6.0    0.032    0.036    0.138    0.149
 mp_irecv_dv                      13482 11.6    0.095    0.146    0.095    0.146
 mp_sum_l                          1387  7.0    0.068    0.119    0.068    0.119
 pw_grid_assign                       4  8.0    0.104    0.108    0.107    0.110
 contract_B_L                         4  7.0    0.001    0.002    0.093    0.106
 make_m2s                           502  9.0    0.006    0.006    0.102    0.104
 integrate_four_center_load          79 10.0    0.001    0.001    0.049    0.098
 hfx_load_balance                     1 11.0    0.000    0.000    0.049    0.097
 dbcsr_complete_redistribute        333  8.5    0.013    0.016    0.095    0.096
 copy_dbcsr_to_fm                   173  7.0    0.003    0.003    0.090    0.095
 hfx_load_balance_range               1 12.0    0.000    0.000    0.046    0.094
 qs_energies_init_hamiltonians        1  3.0    0.000    0.000    0.080    0.081
 build_core_hamiltonian_matrix        1  4.0    0.000    0.000    0.077    0.077
 overlap_condnum                      1  5.0    0.000    0.000    0.075    0.075
 mp_bcast_i_src                     176  7.0    0.050    0.074    0.050    0.074
 hirshfeld_integration                1  6.0    0.001    0.005    0.067    0.069
 multiply_cannon                    251  9.0    0.017    0.018    0.064    0.068
 calculate_hirshfeld_normalizat       1  6.0    0.001    0.007    0.061    0.063
 dbt_total                            8  8.0    0.000    0.000    0.060    0.060
 arnoldi_conjugate_gradient           5  6.0    0.002    0.002    0.059    0.059
 vxc_of_r_new                       156  9.0    0.001    0.008    0.005    0.058
 mp_bcast_iv_src                     44  7.0    0.011    0.057    0.011    0.057
 calculate_rho_atom_coeff            79  6.0    0.013    0.028    0.056    0.057
 offload_free_buffer                 87  8.4    0.045    0.056    0.045    0.056
 make_images                        502 10.0    0.012    0.013    0.051    0.055
 dbt_contract                         4  9.0    0.001    0.001    0.054    0.055
 cp_fm_to_fm_submat_general         112 10.1    0.052    0.054    0.052    0.054
 mp_bcast_am_src                     44  7.0    0.040    0.047    0.045    0.053
 mp_cart_create                     401 10.4    0.039    0.052    0.040    0.053
 dbcsr_finalize                    2391 10.7    0.010    0.015    0.038    0.053
 copy_fm_to_dbcsr                   160  8.1    0.001    0.001    0.048    0.050
 cp_fm_redistribute_start            84  8.0    0.036    0.038    0.046    0.047
 cp_fm_uplo_to_full                 104  8.0    0.028    0.046    0.028    0.046
 -------------------------------------------------------------------------------

 The number of warnings for this run is : 1
 
 -------------------------------------------------------------------------------
  **** **** ******  **  PROGRAM ENDED AT                 2025-03-09 13:04:38.056
 ***** ** ***  *** **   PROGRAM RAN ON                              i03r08c03s06
 **    ****   ******    PROGRAM RAN BY                                   di38fab
 ***** **    ** ** **   PROGRAM PROCESS ID                                144235
  **** **  *******  **  PROGRAM STOPPED IN /hppfs/scratch/04/di38fab/05_MOL/W4-1
                                           1+ALK/li2/aug-cc-pVDZ
