 DBCSR| CPU Multiplication driver                                           BLAS (U)
 DBCSR| Multrec recursion limit                                              512 (U)
 DBCSR| Multiplication stack size                                           1000 (D)
 DBCSR| Maximum elements for images                                    UNLIMITED (U)
 DBCSR| Multiplicative factor virtual images                                   1 (U)
 DBCSR| Use multiplication densification                                       T (D)
 DBCSR| Multiplication size stacks                                             3 (U)
 DBCSR| Use memory pool for CPU allocation                                     F (U)
 DBCSR| Number of 3D layers                                               SINGLE (U)
 DBCSR| Use MPI memory allocation                                              F (U)
 DBCSR| Use RMA algorithm                                                      F (U)
 DBCSR| Use Communication thread                                               T (U)
 DBCSR| Communication thread load                                             75 (D)
 DBCSR| MPI: My process id                                                     0
 DBCSR| MPI: Number of processes                                              24
 DBCSR| OMP: Current number of threads                                         4
 DBCSR| OMP: Max number of threads                                             4
 DBCSR| Split modifier for TAS multiplication algorithm                  1.0E+00 (U)


  **** **** ******  **  PROGRAM STARTED AT               2025-03-04 06:52:32.348
 ***** ** ***  *** **   PROGRAM STARTED ON                          i01r04c04s12
 **    ****   ******    PROGRAM STARTED BY                               di38fab
 ***** **    ** ** **   PROGRAM PROCESS ID                                168504
  **** **  *******  **  PROGRAM STARTED IN /hppfs/scratch/04/di38fab/05_MOL/W4-1
                                           1+ALK/li_h/SZVSR

 CP2K| version string:                 CP2K version 2025.1 (Development Version)
 CP2K| source code revision number:                                  git:47877ba
 CP2K| cp2kflags: omp libint fftw3 libxc parallel scalapack max_contr=4         
 CP2K| is freely available from                            https://www.cp2k.org/
 CP2K| Program compiled at                          Thu Feb 20 16:00:34 CET 2025
 CP2K| Program compiled on                                               login04
 CP2K| Program compiled for                                        Supermuc-foss
 CP2K| Data directory path          /hppfs/work/pn36zo/di38fab/newcp2k/cp2k/data
 CP2K| Input file name                                                    GW.inp

 GLOBAL| Force Environment number                                              1
 GLOBAL| Basis set file name            /hppfs/scratch/04/di38fab/04_TMD/BASIS_A
 GLOBAL| Potential file name            /hppfs/work/pn36zo/di38fab/cp2k/data/ALL
 GLOBAL| MM Potential file name                                     MM_POTENTIAL
 GLOBAL| Coordinate file name                                      __STD_INPUT__
 GLOBAL| Method name                                                        CP2K
 GLOBAL| Project name                                                       MoS2
 GLOBAL| Run type                                                         ENERGY
 GLOBAL| FFT library                                                       FFTW3
 GLOBAL| Diagonalization library                                       ScaLAPACK
 GLOBAL| DGEMM library                                                      BLAS
 GLOBAL| Orthonormality check for eigenvectors                          DISABLED
 GLOBAL| Matrix multiplication library                                 ScaLAPACK
 GLOBAL| All-to-all communication in single precision                          F
 GLOBAL| FFTs using library dependent lengths                                  F
 GLOBAL| Grid backend                                                       AUTO
 GLOBAL| Global print level                                               MEDIUM
 GLOBAL| MPI I/O enabled                                                       T
 GLOBAL| Total number of message passing processes                            24
 GLOBAL| Number of threads for this process                                    4
 GLOBAL| This output is from process                                           0
 GLOBAL| OpenMP stack size per thread (OMP_STACKSIZE)                    default
 GLOBAL| CPU model name             Intel(R) Xeon(R) Platinum 8174 CPU @ 3.10GHz

 MEMORY| system memory details [Kb]
 MEMORY|                        rank 0           min           max       average
 MEMORY| MemTotal             98436660      98436660      98436664      98436662
 MEMORY| MemFree              83928188      83928188      83941676      83934932
 MEMORY| Buffers                     0             0             0             0
 MEMORY| Cached                2411564       2390692       2411564       2401128
 MEMORY| Slab                  1205848       1169008       1205848       1187428
 MEMORY| SReclaimable           264276        259596        264276        261936
 MEMORY| MemLikelyFree        86604028      86591964      86604028      86597996


 *** Fundamental physical constants (SI units) ***

 *** Literature: B. J. Mohr and B. N. Taylor,
 ***             CODATA recommended values of the fundamental physical
 ***             constants: 2006, Web Version 5.1
 ***             http://physics.nist.gov/constants

 Speed of light in vacuum [m/s]                             2.99792458000000E+08
 Magnetic constant or permeability of vacuum [N/A**2]       1.25663706143592E-06
 Electric constant or permittivity of vacuum [F/m]          8.85418781762039E-12
 Planck constant (h) [J*s]                                  6.62606896000000E-34
 Planck constant (h-bar) [J*s]                              1.05457162825177E-34
 Elementary charge [C]                                      1.60217648700000E-19
 Electron mass [kg]                                         9.10938215000000E-31
 Electron g factor [ ]                                     -2.00231930436220E+00
 Proton mass [kg]                                           1.67262163700000E-27
 Fine-structure constant                                    7.29735253760000E-03
 Rydberg constant [1/m]                                     1.09737315685270E+07
 Avogadro constant [1/mol]                                  6.02214179000000E+23
 Boltzmann constant [J/K]                                   1.38065040000000E-23
 Atomic mass unit [kg]                                      1.66053878200000E-27
 Bohr radius [m]                                            5.29177208590000E-11

 *** Conversion factors ***

 [u] -> [a.u.]                                              1.82288848426455E+03
 [Angstrom] -> [Bohr] = [a.u.]                              1.88972613288564E+00
 [a.u.] = [Bohr] -> [Angstrom]                              5.29177208590000E-01
 [a.u.] -> [s]                                              2.41888432650478E-17
 [a.u.] -> [fs]                                             2.41888432650478E-02
 [a.u.] -> [J]                                              4.35974393937059E-18
 [a.u.] -> [N]                                              8.23872205491840E-08
 [a.u.] -> [K]                                              3.15774647902944E+05
 [a.u.] -> [kJ/mol]                                         2.62549961709828E+03
 [a.u.] -> [kcal/mol]                                       6.27509468713739E+02
 [a.u.] -> [Pa]                                             2.94210107994716E+13
 [a.u.] -> [bar]                                            2.94210107994716E+08
 [a.u.] -> [atm]                                            2.90362800883016E+08
 [a.u.] -> [eV]                                             2.72113838565563E+01
 [a.u.] -> [Hz]                                             6.57968392072181E+15
 [a.u.] -> [1/cm] (wave numbers)                            2.19474631370540E+05
 [a.u./Bohr**2] -> [1/cm]                                   5.14048714338585E+03
 

 CELL_TOP| Volume [angstrom^3]:                                     27000.000000
 CELL_TOP| Vector a [angstrom    30.000     0.000     0.000   |a| =    30.000000
 CELL_TOP| Vector b [angstrom     0.000    30.000     0.000   |b| =    30.000000
 CELL_TOP| Vector c [angstrom     0.000     0.000    30.000   |c| =    30.000000
 CELL_TOP| Angle (b,c), alpha [degree]:                                90.000000
 CELL_TOP| Angle (a,c), beta  [degree]:                                90.000000
 CELL_TOP| Angle (a,b), gamma [degree]:                                90.000000
 CELL_TOP| Numerically orthorhombic:                                         YES
 CELL_TOP| Periodicity                                                      NONE

 GENERATE|  Preliminary Number of Bonds generated:                             0
 GENERATE|  Achieved consistency in connectivity generation.

 CELL| Volume [angstrom^3]:                                         27000.000000
 CELL| Vector a [angstrom]:      30.000     0.000     0.000   |a| =    30.000000
 CELL| Vector b [angstrom]:       0.000    30.000     0.000   |b| =    30.000000
 CELL| Vector c [angstrom]:       0.000     0.000    30.000   |c| =    30.000000
 CELL| Angle (b,c), alpha [degree]:                                    90.000000
 CELL| Angle (a,c), beta  [degree]:                                    90.000000
 CELL| Angle (a,b), gamma [degree]:                                    90.000000
 CELL| Numerically orthorhombic:                                             YES
 CELL| Periodicity                                                          NONE

 CELL_REF| Volume [angstrom^3]:                                     27000.000000
 CELL_REF| Vector a [angstrom    30.000     0.000     0.000   |a| =    30.000000
 CELL_REF| Vector b [angstrom     0.000    30.000     0.000   |b| =    30.000000
 CELL_REF| Vector c [angstrom     0.000     0.000    30.000   |c| =    30.000000
 CELL_REF| Angle (b,c), alpha [degree]:                                90.000000
 CELL_REF| Angle (a,c), beta  [degree]:                                90.000000
 CELL_REF| Angle (a,b), gamma [degree]:                                90.000000
 CELL_REF| Numerically orthorhombic:                                         YES
 CELL_REF| Periodicity                                                      NONE

 *******************************************************************************
 *******************************************************************************
 **                                                                           **
 **     #####                         ##              ##                      **
 **    ##   ##            ##          ##              ##                      **
 **   ##     ##                       ##            ######                    **
 **   ##     ##  ##   ##  ##   #####  ##  ##   ####   ##    #####    #####    **
 **   ##     ##  ##   ##  ##  ##      ## ##   ##      ##   ##   ##  ##   ##   **
 **   ##  ## ##  ##   ##  ##  ##      ####     ###    ##   ######   ######    **
 **    ##  ###   ##   ##  ##  ##      ## ##      ##   ##   ##       ##        **
 **     #######   #####   ##   #####  ##  ##  ####    ##    #####   ##        **
 **           ##                                                    ##        **
 **                                                                           **
 **                                                ... make the atoms dance   **
 **                                                                           **
 **            Copyright (C) by CP2K developers group (2000-2025)             **
 **                      J. Chem. Phys. 152, 194103 (2020)                    **
 **                                                                           **
 *******************************************************************************

 DFT| Spin restricted Kohn-Sham (RKS) calculation                            RKS
 DFT| Multiplicity                                                             1
 DFT| Number of spin states                                                    1
 DFT| Charge                                                                   0
 DFT| Self-interaction correction (SIC)                                       NO
 DFT| Cutoffs: density                                              1.000000E-10
 DFT|          gradient                                             1.000000E-10
 DFT|          tau                                                  1.000000E-10
 DFT|          cutoff_smoothing_range                               0.000000E+00
 DFT| XC density smoothing                                                  NONE
 DFT| XC derivatives                                                          PW

 FUNCTIONAL| PBE:
 FUNCTIONAL| J.P.Perdew, K.Burke, M.Ernzerhof, Phys. Rev. Letter, vol. 77, n 18,
 FUNCTIONAL|  pp. 3865-3868, (1996)sx=0.750sc=1.000{spin unpolarized}           


 QS| Method:                                                                GAPW
 QS| Density plane wave grid type                        NON-SPHERICAL FULLSPACE
 QS| Number of grid levels:                                                    4
 QS| Density cutoff [a.u.]:                                                250.0
 QS| Multi grid cutoff [a.u.]: 1) grid level                               250.0
 QS|                           2) grid level                                83.3
 QS|                           3) grid level                                27.8
 QS|                           4) grid level                                 9.3
 QS| Grid level progression factor:                                          3.0
 QS| Relative density cutoff [a.u.]:                                        50.0
 QS| Interaction thresholds: eps_pgf_orb:                                1.0E-12
 QS|                         eps_filter_matrix:                          0.0E+00
 QS|                         eps_core_charge:                            1.0E-14
 QS|                         eps_rho_gspace:                             1.0E-12
 QS|                         eps_rho_rspace:                             1.0E-12
 QS|                         eps_gvg_rspace:                             1.0E-06
 QS|                         eps_ppl:                                    1.0E-02
 QS|                         eps_ppnl:                                   1.0E-08
 QS| GAPW|      One center basis from orbital basis primitives
 QS| GAPW|                   eps_fit:                                    1.0E-04
 QS| GAPW|                   eps_iso:                                    1.0E-12
 QS| GAPW|                   eps_svd:                                    1.0E-08
 QS| GAPW|                   eps_cpc:                                    1.0E-12
 QS| GAPW|   atom-r-grid: quadrature:                                     GC_LOG
 QS| GAPW|      atom-s-grid:  max l :                                          4
 QS| GAPW|      max_l_rho0 :                                                   2
 QS| GAPW|      At least one kind is NOT PAW, i.e. it has only soft AO 
 QS| GAPW|      The NOT PAW atoms are treated fully GPW


 ATOMIC KIND INFORMATION

  1. Atomic kind: li                                    Number of atoms:       1

     Orbital Basis Set                                         aug-SZV-MOLOPT-ae

       Number of orbital shell sets:                                           2
       Number of orbital shells:                                               6
       Number of primitive Cartesian functions:                               12
       Number of Cartesian basis functions:                                   15
       Number of spherical basis functions:                                   14
       Norm type:                                                              2

       Normalised Cartesian orbitals:

                        Set   Shell   Orbital            Exponent    Coefficient

                          1       1    1s                0.031084       0.012700
                                                         0.067814       0.056364
                                                         0.156146       0.044301
                                                         0.405851      -0.012244
                                                         1.305830      -0.040912
                                                         6.597564      -0.038883

                          1       2    2s                0.031084       0.052890
                                                         0.067814      -0.000168
                                                         0.156146      -0.000256
                                                         0.405851       0.000043
                                                         1.305830       0.000104
                                                         6.597564       0.000000

                          1       3    2px               0.031084       0.001892
                                                         0.067814       0.021007
                                                         0.156146       0.058488
                                                         0.405851       0.080295
                                                         1.305830       0.074973
                                                         6.597564       0.056666
                          1       3    2py               0.031084       0.001892
                                                         0.067814       0.021007
                                                         0.156146       0.058488
                                                         0.405851       0.080295
                                                         1.305830       0.074973
                                                         6.597564       0.056666
                          1       3    2pz               0.031084       0.001892
                                                         0.067814       0.021007
                                                         0.156146       0.058488
                                                         0.405851       0.080295
                                                         1.305830       0.074973
                                                         6.597564       0.056666

                          1       4    3px               0.031084      -0.000945
                                                         0.067814       0.051077
                                                         0.156146      -0.000811
                                                         0.405851       0.008960
                                                         1.305830       0.038611
                                                         6.597564       0.000000
                          1       4    3py               0.031084      -0.000945
                                                         0.067814       0.051077
                                                         0.156146      -0.000811
                                                         0.405851       0.008960
                                                         1.305830       0.038611
                                                         6.597564       0.000000
                          1       4    3pz               0.031084      -0.000945
                                                         0.067814       0.051077
                                                         0.156146      -0.000811
                                                         0.405851       0.008960
                                                         1.305830       0.038611
                                                         6.597564       0.000000

                          1       5    3dx2              0.031084       0.000452
                                                         0.067814       0.006113
                                                         0.156146       0.034198
                                                         0.405851       0.019071
                                                         1.305830       0.147410
                                                         6.597564       0.000000
                          1       5    3dxy              0.031084       0.000782
                                                         0.067814       0.010588
                                                         0.156146       0.059232
                                                         0.405851       0.033031
                                                         1.305830       0.255321
                                                         6.597564       0.000000
                          1       5    3dxz              0.031084       0.000782
                                                         0.067814       0.010588
                                                         0.156146       0.059232
                                                         0.405851       0.033031
                                                         1.305830       0.255321
                                                         6.597564       0.000000
                          1       5    3dy2              0.031084       0.000452
                                                         0.067814       0.006113
                                                         0.156146       0.034198
                                                         0.405851       0.019071
                                                         1.305830       0.147410
                                                         6.597564       0.000000
                          1       5    3dyz              0.031084       0.000782
                                                         0.067814       0.010588
                                                         0.156146       0.059232
                                                         0.405851       0.033031
                                                         1.305830       0.255321
                                                         6.597564       0.000000
                          1       5    3dz2              0.031084       0.000452
                                                         0.067814       0.006113
                                                         0.156146       0.034198
                                                         0.405851       0.019071
                                                         1.305830       0.147410
                                                         6.597564       0.000000

                          2       1    1s              167.175846       0.303638
                                                        30.651508       0.458287
                                                         8.575187       0.601924
                                                         2.945808       0.593848
                                                         1.143944       0.328337
                                                         0.471139       0.052824

     RI Auxiliary Basis Set             RI_aug-SZV-MOLOPT-ae_N_RI_018_s_p_d_f_g_

       Number of orbital shell sets:                                           8
       Number of orbital shells:                                               8
       Number of primitive Cartesian functions:                                8
       Number of Cartesian basis functions:                                   19
       Number of spherical basis functions:                                   18
       Norm type:                                                              2

       Normalised Cartesian orbitals:

                        Set   Shell   Orbital            Exponent    Coefficient

                          1       1    1s                0.253689       0.254763

                          2       1    5px               0.257401       0.261338
                          2       1    5py               0.257401       0.261338
                          2       1    5pz               0.257401       0.261338

                          3       1    2s                0.742787       0.570241

                          4       1    8dx2              0.768670       1.038615
                          4       1    8dxy              0.768670       1.798934
                          4       1    8dxz              0.768670       1.798934
                          4       1    8dy2              0.768670       1.038615
                          4       1    8dyz              0.768670       1.798934
                          4       1    8dz2              0.768670       1.038615

                          5       1    6px               1.083889       1.576417
                          5       1    6py               1.083889       1.576417
                          5       1    6pz               1.083889       1.576417

                          6       1    7px               4.451553       9.216786
                          6       1    7py               4.451553       9.216786
                          6       1    7pz               4.451553       9.216786

                          7       1    3s                6.183616       2.794743

                          8       1    4s               31.308731       9.433203

       Atomic covalent radius [Angstrom]:                                  1.230

       Atomic van der Waals radius [Angstrom]:                             1.820

     The atoms of this atomic kind are PAW atoms (GAPW):
       Hard Gaussian function radius:                                      1.512
       Rho0 radius:                                                        1.512
       Maximum GTO radius used for PAW projector construction:            24.566

     GAPW Soft Basis Set                                  aug-SZV-MOLOPT-ae_soft

       Number of orbital shell sets:                                           2
       Number of orbital shells:                                               6
       Number of primitive Cartesian functions:                                8
       Number of Cartesian basis functions:                                   15
       Number of spherical basis functions:                                   14
       Norm type:                                                              2

       Normalised Cartesian orbitals:

                        Set   Shell   Orbital            Exponent    Coefficient

                          1       1    1s                0.031084       0.012700
                                                         0.067814       0.056364
                                                         0.156146       0.044301
                                                         0.405851      -0.012244
                                                         1.305830      -0.040912

                          1       2    2s                0.031084       0.052890
                                                         0.067814      -0.000168
                                                         0.156146      -0.000256
                                                         0.405851       0.000043
                                                         1.305830       0.000104

                          1       3    2px               0.031084       0.001892
                                                         0.067814       0.021007
                                                         0.156146       0.058488
                                                         0.405851       0.080295
                                                         1.305830       0.074973
                          1       3    2py               0.031084       0.001892
                                                         0.067814       0.021007
                                                         0.156146       0.058488
                                                         0.405851       0.080295
                                                         1.305830       0.074973
                          1       3    2pz               0.031084       0.001892
                                                         0.067814       0.021007
                                                         0.156146       0.058488
                                                         0.405851       0.080295
                                                         1.305830       0.074973

                          1       4    3px               0.031084      -0.000945
                                                         0.067814       0.051077
                                                         0.156146      -0.000811
                                                         0.405851       0.008960
                                                         1.305830       0.038611
                          1       4    3py               0.031084      -0.000945
                                                         0.067814       0.051077
                                                         0.156146      -0.000811
                                                         0.405851       0.008960
                                                         1.305830       0.038611
                          1       4    3pz               0.031084      -0.000945
                                                         0.067814       0.051077
                                                         0.156146      -0.000811
                                                         0.405851       0.008960
                                                         1.305830       0.038611

                          1       5    3dx2              0.031084       0.000452
                                                         0.067814       0.006113
                                                         0.156146       0.034198
                                                         0.405851       0.019071
                                                         1.305830       0.147410
                          1       5    3dxy              0.031084       0.000782
                                                         0.067814       0.010588
                                                         0.156146       0.059232
                                                         0.405851       0.033031
                                                         1.305830       0.255321
                          1       5    3dxz              0.031084       0.000782
                                                         0.067814       0.010588
                                                         0.156146       0.059232
                                                         0.405851       0.033031
                                                         1.305830       0.255321
                          1       5    3dy2              0.031084       0.000452
                                                         0.067814       0.006113
                                                         0.156146       0.034198
                                                         0.405851       0.019071
                                                         1.305830       0.147410
                          1       5    3dyz              0.031084       0.000782
                                                         0.067814       0.010588
                                                         0.156146       0.059232
                                                         0.405851       0.033031
                                                         1.305830       0.255321
                          1       5    3dz2              0.031084       0.000452
                                                         0.067814       0.006113
                                                         0.156146       0.034198
                                                         0.405851       0.019071
                                                         1.305830       0.147410

                          2       1    1s                2.945808       0.593848
                                                         1.143944       0.328337
                                                         0.471139       0.052824

     AE Potential information for                                            ALL

       Description:                                       All-electron potential
                                          Krack, Parrinello, PCCP 2, 2105 (2000)

       Gaussian exponent of the core charge distribution:               3.125000
       Electronic configuration (s p d ...):                           3   0   0

  2. Atomic kind: h                                     Number of atoms:       1

     Orbital Basis Set                                      aug-SZV-MOLOPT-ae-SR

       Number of orbital shell sets:                                           1
       Number of orbital shells:                                               4
       Number of primitive Cartesian functions:                                4
       Number of Cartesian basis functions:                                    6
       Number of spherical basis functions:                                    6
       Norm type:                                                              2

       Normalised Cartesian orbitals:

                        Set   Shell   Orbital            Exponent    Coefficient

                          1       1    2s                0.065428       0.000000
                                                         0.168855       0.083474
                                                         0.623914       0.267839
                                                         3.425251       0.276934

                          1       2    3s                0.065428      -0.066952
                                                         0.168855       0.261968
                                                         0.623914       0.081548
                                                         3.425251      -0.022414

                          1       3    4s                0.065428       0.165615
                                                         0.168855      -0.226449
                                                         0.623914      -0.005802
                                                         3.425251       0.005451

                          1       4    3px               0.065428       0.053063
                                                         0.168855      -0.030502
                                                         0.623914       0.062721
                                                         3.425251       0.019012
                          1       4    3py               0.065428       0.053063
                                                         0.168855      -0.030502
                                                         0.623914       0.062721
                                                         3.425251       0.019012
                          1       4    3pz               0.065428       0.053063
                                                         0.168855      -0.030502
                                                         0.623914       0.062721
                                                         3.425251       0.019012

     RI Auxiliary Basis Set             RI_aug-SZV-MOLOPT-ae-SR_N_RI_008_s_p_d_f

       Number of orbital shell sets:                                           6
       Number of orbital shells:                                               6
       Number of primitive Cartesian functions:                                6
       Number of Cartesian basis functions:                                    8
       Number of spherical basis functions:                                    8
       Norm type:                                                              2

       Normalised Cartesian orbitals:

                        Set   Shell   Orbital            Exponent    Coefficient

                          1       1    1s                0.278583       0.273291

                          2       1    6px               0.490046       0.584434
                          2       1    6py               0.490046       0.584434
                          2       1    6pz               0.490046       0.584434

                          3       1    2s                0.587968       0.478548

                          4       1    3s                1.207264       0.820846

                          5       1    4s                2.669340       1.488377

                          6       1    5s                5.239499       2.468183

       Atomic covalent radius [Angstrom]:                                  0.320

       Atomic van der Waals radius [Angstrom]:                             1.090

     AE Potential information for                                            ALL

       Description:                                       All-electron potential
                                          Krack, Parrinello, PCCP 2, 2105 (2000)

       Gaussian exponent of the core charge distribution:              12.500000
       Electronic configuration (s p d ...):                           1   0   0


 MOLECULE KIND INFORMATION


 All atoms are their own molecule, skipping detailed information


 TOTAL NUMBERS AND MAXIMUM NUMBERS

  Total number of            - Atomic kinds:                                   2
                             - Atoms:                                          2
                             - Shell sets:                                     3
                             - Shells:                                        10
                             - Primitive Cartesian functions:                 16
                             - Cartesian basis functions:                     21
                             - Spherical basis functions:                     20

  Maximum angular momentum of the orbital basis functions:                     2


 MODULE QUICKSTEP: ATOMIC COORDINATES IN ANGSTROM

   Atom Kind Element         X             Y             Z       Z(eff)     Mass
      1    1 li    3     15.000000     15.000000     14.202603   3.0000   6.9410
      2    2 h     1     15.000000     15.000000     15.797397   1.0000   1.0079



 SCF PARAMETERS         Density guess:                                    ATOMIC
                        --------------------------------------------------------
                        max_scf:                                             500
                        max_scf_history:                                       0
                        max_diis:                                              4
                        --------------------------------------------------------
                        eps_scf:                                        1.00E-06
                        eps_scf_history:                                0.00E+00
                        eps_diis:                                       1.00E-01
                        eps_eigval:                                     1.00E-05
                        --------------------------------------------------------
                        level_shift [a.u.]:                             0.000000
                        added MOs                                        18    0
                        --------------------------------------------------------
                        Mixing method:                            BROYDEN_MIXING
                                                charge density mixing in g-space
                        --------------------------------------------------------
                        Smear method:                                FERMI_DIRAC
                        Electronic temperature [K]:                        300.0
                        Electronic temperature [a.u.]:                  9.50E-04
                        Accuracy threshold:                             1.00E-10
                        --------------------------------------------------------
                        No outer SCF

 PW_GRID| Information for grid number                                          1
 PW_GRID| Grid distributed over                                    24 processors
 PW_GRID| Real space group dimensions                                    24    1
 PW_GRID| the grid is blocked:                                                NO
 PW_GRID| Cutoff [a.u.]                                                    250.0
 PW_GRID| spherical cutoff:                                                   NO
 PW_GRID|   Bounds   1           -202     202                Points:         405
 PW_GRID|   Bounds   2           -202     202                Points:         405
 PW_GRID|   Bounds   3           -202     202                Points:         405
 PW_GRID| Volume element (a.u.^3)  0.2743E-02     Volume (a.u.^3)    182205.0337
 PW_GRID| Grid span                                                    FULLSPACE
 PW_GRID|   Distribution                         Average         Max         Min
 PW_GRID|   G-Vectors                          2767921.9     2768175     2767770
 PW_GRID|   G-Rays                                6834.4        6835        6834
 PW_GRID|   Real Space Points                  2767921.9     2788425     2624400

 PW_GRID| Information for grid number                                          2
 PW_GRID| Number of the reference grid                                         1
 PW_GRID| Grid distributed over                                    24 processors
 PW_GRID| Real space group dimensions                                    24    1
 PW_GRID| the grid is blocked:                                                NO
 PW_GRID| Cutoff [a.u.]                                                     83.3
 PW_GRID| spherical cutoff:                                                   NO
 PW_GRID|   Bounds   1           -120     119                Points:         240
 PW_GRID|   Bounds   2           -120     119                Points:         240
 PW_GRID|   Bounds   3           -120     119                Points:         240
 PW_GRID| Volume element (a.u.^3)  0.1318E-01     Volume (a.u.^3)    182205.0337
 PW_GRID| Grid span                                                    FULLSPACE
 PW_GRID|   Distribution                         Average         Max         Min
 PW_GRID|   G-Vectors                           576000.0      576240      575760
 PW_GRID|   G-Rays                                2400.0        2401        2399
 PW_GRID|   Real Space Points                   576000.0      576000      576000

 PW_GRID| Information for grid number                                          3
 PW_GRID| Number of the reference grid                                         1
 PW_GRID| Grid distributed over                                    24 processors
 PW_GRID| Real space group dimensions                                    24    1
 PW_GRID| the grid is blocked:                                                NO
 PW_GRID| Cutoff [a.u.]                                                     27.8
 PW_GRID| spherical cutoff:                                                   NO
 PW_GRID|   Bounds   1            -67      67                Points:         135
 PW_GRID|   Bounds   2            -67      67                Points:         135
 PW_GRID|   Bounds   3            -67      67                Points:         135
 PW_GRID| Volume element (a.u.^3)  0.7406E-01     Volume (a.u.^3)    182205.0337
 PW_GRID| Grid span                                                    FULLSPACE
 PW_GRID|   Distribution                         Average         Max         Min
 PW_GRID|   G-Vectors                           102515.6      102735      102330
 PW_GRID|   G-Rays                                 759.4         761         758
 PW_GRID|   Real Space Points                   102515.6      109350       91125

 PW_GRID| Information for grid number                                          4
 PW_GRID| Number of the reference grid                                         1
 PW_GRID| Grid distributed over                                    24 processors
 PW_GRID| Real space group dimensions                                    24    1
 PW_GRID| the grid is blocked:                                                NO
 PW_GRID| Cutoff [a.u.]                                                      9.3
 PW_GRID| spherical cutoff:                                                   NO
 PW_GRID|   Bounds   1            -40      39                Points:          80
 PW_GRID|   Bounds   2            -40      39                Points:          80
 PW_GRID|   Bounds   3            -40      39                Points:          80
 PW_GRID| Volume element (a.u.^3)  0.3559         Volume (a.u.^3)    182205.0337
 PW_GRID| Grid span                                                    FULLSPACE
 PW_GRID|   Distribution                         Average         Max         Min
 PW_GRID|   G-Vectors                            21333.3       21360       21280
 PW_GRID|   G-Rays                                 266.7         267         266
 PW_GRID|   Real Space Points                    21333.3       25600       19200

 POISSON| Solver                                                         WAVELET
 POISSON| Wavelet| Scaling function                                           40
 POISSON| Periodicity                                                       NONE

 RS_GRID| Information for grid number                                          1
 RS_GRID|   Bounds   1           -202     202                Points:         405
 RS_GRID|   Bounds   2           -202     202                Points:         405
 RS_GRID|   Bounds   3           -202     202                Points:         405
 RS_GRID| Real space distribution over                                  4 groups
 RS_GRID| Real space distribution along direction                              2
 RS_GRID| Border size                                                         35
 RS_GRID| Real space distribution over                                  6 groups
 RS_GRID| Real space distribution along direction                              3
 RS_GRID| Border size                                                         35
 RS_GRID|   Distribution                         Average         Max         Min
 RS_GRID|   Planes                                 171.2         172         171
 RS_GRID|   Distribution                         Average         Max         Min
 RS_GRID|   Planes                                 137.5         138         137

 RS_GRID| Information for grid number                                          2
 RS_GRID|   Bounds   1           -120     119                Points:         240
 RS_GRID|   Bounds   2           -120     119                Points:         240
 RS_GRID|   Bounds   3           -120     119                Points:         240
 RS_GRID| Real space distribution over                                  4 groups
 RS_GRID| Real space distribution along direction                              2
 RS_GRID| Border size                                                         37
 RS_GRID| Real space distribution over                                  6 groups
 RS_GRID| Real space distribution along direction                              3
 RS_GRID| Border size                                                         37
 RS_GRID|   Distribution                         Average         Max         Min
 RS_GRID|   Planes                                 134.0         134         134
 RS_GRID|   Distribution                         Average         Max         Min
 RS_GRID|   Planes                                 114.0         114         114

 RS_GRID| Information for grid number                                          3
 RS_GRID|   Bounds   1            -67      67                Points:         135
 RS_GRID|   Bounds   2            -67      67                Points:         135
 RS_GRID|   Bounds   3            -67      67                Points:         135
 RS_GRID| Real space fully replicated
 RS_GRID| Group size                                                           1

 RS_GRID| Information for grid number                                          4
 RS_GRID|   Bounds   1            -40      39                Points:          80
 RS_GRID|   Bounds   2            -40      39                Points:          80
 RS_GRID|   Bounds   3            -40      39                Points:          80
 RS_GRID| Real space fully replicated
 RS_GRID| Group size                                                           1

  HFX_INFO| Replica ID:                                                        1
  HFX_INFO| FRACTION:                                               0.2500000000
  HFX_INFO| Interaction Potential:                                       COULOMB
  HFX_INFO| EPS_SCHWARZ:                                                 1.0E-10
  HFX_INFO| EPS_SCHWARZ_FORCES                                           1.0E-08
  HFX_INFO| EPS_STORAGE_SCALING:                                         1.0E+00
  HFX_INFO| NBINS:                                                            64
  HFX_INFO| BLOCK_SIZE:                                                        1
  HFX_INFO| Number of periodic shells considered:                           NONE
  HFX_INFO| Number of periodic cells considered:                            NONE

 
 RI-RPA| using GPW style
 

 OVERLAP MATRIX CONDITION NUMBER
 1-Norm Condition Number (Estimate)
   CN : |A|*|A^-1|:  4.252E+000 *  2.513E+002   = 1.069E+003  Log(1-CN):  3.0288
 1-Norm and 2-Norm Condition Numbers using Diagonalization
   CN : |A|*|A^-1|:  4.252E+000 *  2.513E+002   = 1.069E+003  Log(1-CN):  3.0288
   CN : max/min ev:  3.359E+000 /  5.347E-003   = 6.283E+002  Log(2-CN):  2.7981

 Number of electrons:                                                          4
 Number of occupied orbitals:                                                  2
 Number of molecular orbitals:                                                20

 Number of orbital functions:                                                 20
 Number of independent orbital functions:                                     20

 Extrapolation method: initial_guess

 Atomic guess: The first density matrix is obtained in terms of atomic orbitals
               and electronic configurations assigned to each atomic kind

 Guess for atomic kind: li

 Electronic structure
    Total number of core electrons                                          0.00
    Total number of valence electrons                                       3.00
    Total number of electrons                                               3.00
    Multiplicity                                                   not specified
    S      2.00  1.00


 *******************************************************************************
                  Iteration          Convergence                     Energy [au]
 *******************************************************************************
                          1        0.202411E-01                  -7.312657268297
                          2        0.138544E-02                  -7.312790799951
                          3        0.998413E-04                  -7.312791595344
                          4        0.135314E-06                  -7.312791602719

 Energy components [Hartree]           Total Energy ::           -7.312791602719
                                        Band Energy ::           -3.804143623497
                                     Kinetic Energy ::            7.228768871590
                                   Potential Energy ::          -14.541560474309
                                      Virial (-V/T) ::            2.011623380498
                                        Core Energy ::           -9.676221740042
                                          XC Energy ::           -1.669700551228
                                     Coulomb Energy ::            4.033130688551

 Orbital energies  State     L     Occupation   Energy[a.u.]          Energy[eV]

                       1     0          2.000      -1.849901          -50.338356
                       2     0          1.000      -0.104342           -2.839301


 Total Electron Density at R=0:                                        10.832580

 Guess for atomic kind: h

 Electronic structure
    Total number of core electrons                                          0.00
    Total number of valence electrons                                       1.00
    Total number of electrons                                               1.00
    Multiplicity                                                   not specified
    S      1.00


 *******************************************************************************
                  Iteration          Convergence                     Energy [au]
 *******************************************************************************
                          1        0.105001E-01                  -0.442912571909
                          2        0.809393E-03                  -0.443000038014
                          3        0.126045E-03                  -0.443002205783
                          4        0.926691E-07                  -0.443002227638

 Energy components [Hartree]           Total Energy ::           -0.443002227638
                                        Band Energy ::           -0.231242105371
                                     Kinetic Energy ::            0.416655567325
                                   Potential Energy ::           -0.859657794963
                                      Virial (-V/T) ::            2.063233669195
                                        Core Energy ::           -0.493343888102
                                          XC Energy ::           -0.231659799565
                                     Coulomb Energy ::            0.282001460029

 Orbital energies  State     L     Occupation   Energy[a.u.]          Energy[eV]

                       1     0          1.000      -0.231242           -6.292418


 Total Electron Density at R=0:                                         0.184980
 Re-scaling the density matrix to get the right number of electrons
                  # Electrons              Trace(P)               Scaling factor
                            4                 4.000                        1.000


 SCF WAVEFUNCTION OPTIMIZATION

  Step     Update method      Time    Convergence         Total energy    Change
  ------------------------------------------------------------------------------

  HFX_MEM_INFO| Est. max. program size before HFX [MiB]:                    2206
  HFX_MEM_INFO| Number of cart. primitive ERI's calculated:             26040864
  HFX_MEM_INFO| Number of sph. ERI's calculated:                           73312
  HFX_MEM_INFO| Number of sph. ERI's stored in-core:                       73312
  HFX_MEM_INFO| Number of sph. ERI's stored on disk:                           0
  HFX_MEM_INFO| Number of sph. ERI's calculated on the fly:                    0
  HFX_MEM_INFO| Total memory consumption ERI's RAM [MiB]:                      1
  HFX_MEM_INFO| Whereof max-vals [MiB]:                                        1
  HFX_MEM_INFO| Total compression factor ERI's RAM:                         0.57
  HFX_MEM_INFO| Total memory consumption ERI's disk [MiB]:                     0
  HFX_MEM_INFO| Total compression factor ERI's disk:                        0.00
  HFX_MEM_INFO| Size of density/Fock matrix [MiB]:                             0
  HFX_MEM_INFO| Size of buffers [MiB]:                                         0
  HFX_MEM_INFO| Est. max. program size after HFX  [MiB]:                    2716

     1 NoMix/Diag. 0.10E+00    7.5     0.43103045        -7.9033074601 -7.90E+00
     2 Broy./Diag. 0.10E+00    4.9     0.09549868        -7.6823856770  2.21E-01
     3 Broy./Diag. 0.10E+00    5.0     0.11848727        -7.4077516109  2.75E-01
     4 Broy./Diag. 0.10E+00    5.0     0.11141745        -7.1636379660  2.44E-01
     5 Broy./Diag. 0.10E+00    5.0     0.06277658        -7.5505688744 -3.87E-01
     6 Broy./Diag. 0.10E+00    5.1     0.05527842        -7.6218549612 -7.13E-02
     7 Broy./Diag. 0.10E+00    5.1     0.03443457        -7.6699721121 -4.81E-02
     8 Broy./Diag. 0.10E+00    5.4     0.21234847        -7.8532480653 -1.83E-01
     9 Broy./Diag. 0.10E+00    5.5     0.13530530        -8.0339115905 -1.81E-01
    10 Broy./Diag. 0.10E+00    5.6     0.02828024        -8.1172065944 -8.33E-02
    11 Broy./Diag. 0.10E+00    5.5     0.15842804        -7.9744536420  1.43E-01
    12 Broy./Diag. 0.10E+00    5.5     0.01834470        -7.8902496959  8.42E-02
    13 Broy./Diag. 0.10E+00    5.4     0.03675748        -7.9118490625 -2.16E-02
    14 Broy./Diag. 0.10E+00    5.4     0.01798999        -7.9463541713 -3.45E-02
    15 Broy./Diag. 0.10E+00    5.3     0.01989145        -7.9734865401 -2.71E-02
    16 Broy./Diag. 0.10E+00    5.3     0.00624763        -7.9874783555 -1.40E-02
    17 Broy./Diag. 0.10E+00    5.5     0.00403766        -7.9855992371  1.88E-03
    18 Broy./Diag. 0.10E+00    5.5     0.02162090        -7.9638613245  2.17E-02
    19 Broy./Diag. 0.10E+00    5.5     0.01586357        -7.9747072388 -1.08E-02
    20 Broy./Diag. 0.10E+00    5.5     0.01062793        -7.9909448338 -1.62E-02
    21 Broy./Diag. 0.10E+00    5.5     0.00395579        -7.9890082527  1.94E-03
    22 Broy./Diag. 0.10E+00    5.4     0.00923078        -7.9939901780 -4.98E-03
    23 Broy./Diag. 0.10E+00    5.4     0.01469824        -8.0129630126 -1.90E-02
    24 Broy./Diag. 0.10E+00    5.6     0.00365956        -8.0234037553 -1.04E-02
    25 Broy./Diag. 0.10E+00    5.7     0.00897329        -8.0161591807  7.24E-03
    26 Broy./Diag. 0.10E+00    5.5     0.00567063        -8.0166593062 -5.00E-04
    27 Broy./Diag. 0.10E+00    5.5     0.00744949        -8.0255349431 -8.88E-03
    28 Broy./Diag. 0.10E+00    5.4     0.00252473        -8.0311061358 -5.57E-03
    29 Broy./Diag. 0.10E+00    5.4     0.00179599        -8.0305023629  6.04E-04
    30 Broy./Diag. 0.10E+00    5.4     0.00200884        -8.0278845664  2.62E-03
    31 Broy./Diag. 0.10E+00    5.4     0.00296112        -8.0288012143 -9.17E-04
    32 Broy./Diag. 0.10E+00    5.4     0.00195437        -8.0315851435 -2.78E-03
    33 Broy./Diag. 0.10E+00    5.4     0.00025433        -8.0326715477 -1.09E-03
    34 Broy./Diag. 0.10E+00    5.4     0.00170890        -8.0315211958  1.15E-03
    35 Broy./Diag. 0.10E+00    5.3     0.00027214        -8.0308797609  6.41E-04
    36 Broy./Diag. 0.10E+00    5.3     0.00085555        -8.0315978153 -7.18E-04
    37 Broy./Diag. 0.10E+00    5.4     0.00115972        -8.0310146341  5.83E-04
    38 Broy./Diag. 0.10E+00    5.4     0.00068711        -8.0299183020  1.10E-03
    39 Broy./Diag. 0.10E+00    5.5     0.00050400        -8.0300667904 -1.48E-04
    40 Broy./Diag. 0.10E+00    5.5     0.00055624        -8.0307878820 -7.21E-04
    41 Broy./Diag. 0.10E+00    5.6     0.00021696        -8.0308505150 -6.26E-05
    42 Broy./Diag. 0.10E+00    5.6     0.00035275        -8.0304625163  3.88E-04
    43 Broy./Diag. 0.10E+00    5.5     0.00003402        -8.0302862953  1.76E-04
    44 Broy./Diag. 0.10E+00    5.4     0.00036636        -8.0305730152 -2.87E-04
    45 Broy./Diag. 0.10E+00    5.4     0.00036787        -8.0304367810  1.36E-04
    46 Broy./Diag. 0.10E+00    5.3     0.00023810        -8.0300903250  3.46E-04
    47 Broy./Diag. 0.10E+00    5.3     0.00002607        -8.0299998367  9.05E-05
    48 Broy./Diag. 0.10E+00    5.4     0.00012705        -8.0301205846 -1.21E-04
    49 Broy./Diag. 0.10E+00    5.4     0.00006838        -8.0301232875 -2.70E-06
    50 Broy./Diag. 0.10E+00    5.5     0.00006645        -8.0300431771  8.01E-05
    51 Broy./Diag. 0.10E+00    5.4     0.00004794        -8.0300550668 -1.19E-05
    52 Broy./Diag. 0.10E+00    5.5     0.00001352        -8.0300588734 -3.81E-06
    53 Broy./Diag. 0.10E+00    5.5     0.00004620        -8.0300121772  4.67E-05
    54 Broy./Diag. 0.10E+00    5.6     0.00001609        -8.0300065337  5.64E-06
    55 Broy./Diag. 0.10E+00    5.5     0.00003321        -8.0300410535 -3.45E-05
    56 Broy./Diag. 0.10E+00    5.5     0.00005313        -8.0300063784  3.47E-05
    57 Broy./Diag. 0.10E+00    5.5     0.00000427        -8.0299814395  2.49E-05
    58 Broy./Diag. 0.10E+00    5.4     0.00002067        -8.0299975971 -1.62E-05
    59 Broy./Diag. 0.10E+00    5.4     0.00000821        -8.0299975166  8.05E-08
    60 Broy./Diag. 0.10E+00    5.4     0.00001342        -8.0299773765  2.01E-05
    61 Broy./Diag. 0.10E+00    5.5     0.00001779        -8.0299868499 -9.47E-06
    62 Broy./Diag. 0.10E+00    5.3     0.00000490        -8.0299988142 -1.20E-05
    63 Broy./Diag. 0.10E+00    5.3     0.00000394        -8.0299979344  8.80E-07
    64 Broy./Diag. 0.10E+00    5.3     0.00000653        -8.0300015009 -3.57E-06
    65 Broy./Diag. 0.10E+00    5.4     0.00000304        -8.0300049791 -3.48E-06
    66 Broy./Diag. 0.10E+00    5.4     0.00000322        -8.0300027047  2.27E-06
    67 Broy./Diag. 0.10E+00    5.3     0.00000130        -8.0300002920  2.41E-06
    68 Broy./Diag. 0.10E+00    5.4     0.00000110        -8.0300010196 -7.28E-07
    69 Broy./Diag. 0.10E+00    5.5     0.00000399        -8.0299988392  2.18E-06
    70 Broy./Diag. 0.10E+00    5.6     0.00000134        -8.0299978797  9.60E-07
    71 Broy./Diag. 0.10E+00    5.5     0.00000268        -8.0300002782 -2.40E-06
    72 Broy./Diag. 0.10E+00    5.5     0.00000045        -8.0300016842 -1.41E-06

  *** SCF run converged in    72 steps ***


  Electronic density on regular grids:         -3.4890877248        0.5109122752
  Core density on regular grids:                1.0000000000       -3.0000000000
  Hard and soft densities (Lebedev):           -4.3379434348       -3.8270291878
  Total Rho_soft + Rho1_hard - Rho1_soft       -4.0000019718
  Total charge density (r-space):              -3.0000019718
  Total Rho_soft + Rho0_soft (g-space):        -0.0000019803

  Overlap energy of the core charge distribution:               0.00000000001589
  Self energy of the core charge distribution:                 -7.75760677378165
  Core Hamiltonian energy:                                      0.75922376841001
  Hartree energy:                                               3.33662160274610
  Exchange-correlation energy:                                 -1.13119033932255
  Hartree-Fock Exchange energy:                                -0.53400900536145

  GAPW| Exc from hard and soft atomic rho1:                    -0.53481593415314
  GAPW| local Eh = 1 center integrals:                         -2.16822500274206
  Electronic entropic energy:                                  -0.00000000000000
  Fermi energy:                                                -0.07116941443413

  Total energy:                                                -8.03000168418884

 !-----------------------------------------------------------------------------!
                     Mulliken Population Analysis

 #  Atom  Element  Kind  Atomic population                           Net charge
       1     li       1          2.701268                              0.298732
       2     h        2          1.298732                             -0.298732
 # Total charge                              4.000000                  0.000000

 !-----------------------------------------------------------------------------!

 !-----------------------------------------------------------------------------!
                           Hirshfeld Charges

  #Atom  Element  Kind  Ref Charge     Population                    Net charge
      1       li     1       3.000          3.486                        -0.486
      2       h      2       1.000          0.512                         0.488

  Total Charge                                                            0.002
 !-----------------------------------------------------------------------------!


 RI-RPA section
 --------------

  Used number of processes per group:                                          1
  Maximum allowed memory usage per MPI process:                      1024.00 MiB
  RI_INFO| Cholesky decomposition group size:                                  2
  RI_INFO| Number of groups for auxiliary basis functions                     24

  RI_INFO| RI metric:                                                    COULOMB
  RI_INFO| Number of auxiliary basis functions:                               26
  GENERAL_INFO| Number of basis functions:                                    20
  GENERAL_INFO| Number of occupied orbitals:                                   2
  GENERAL_INFO| Number of virtual orbitals:                                   18
  RI_INFO| Total memory for (ia|K) integrals:                           0.01 MiB
  RI_INFO| Total memory for G0W0-(nm|K) integrals:                      0.08 MiB
  RI_INFO| Total memory for (ij|K) integrals:                           0.00 MiB
  RI_INFO| Total memory for (ab|K) integrals:                           0.06 MiB
  RI_INFO| Group size for frequency integration:                              24
  INTEG_INFO| Clenshaw-Curtius quadrature
  INTEG_INFO| Number of integration points:                                  100
  INTEG_INFO| Number of integration points per RPA group:                    100
  MATRIX_INFO| Number row processes:                                           6
  MATRIX_INFO| Number column processes:                                        4
  MATRIX_INFO| Row block size:                                                 2
  MATRIX_INFO| Column block size:                                              4
  INTEG_INFO| Scaling parameter:                                         0.20000
  INTEG_INFO| Started with Integration point   1 of 100
  INTEG_INFO| Started with Integration point   2 of 100
  INTEG_INFO| Started with Integration point   3 of 100
  INTEG_INFO| Started with Integration point   4 of 100
  INTEG_INFO| Started with Integration point   5 of 100
  INTEG_INFO| Started with Integration point   6 of 100
  INTEG_INFO| Started with Integration point   7 of 100
  INTEG_INFO| Started with Integration point   8 of 100
  INTEG_INFO| Started with Integration point   9 of 100
  INTEG_INFO| Started with Integration point  10 of 100
  INTEG_INFO| Started with Integration point  11 of 100
  INTEG_INFO| Started with Integration point  12 of 100
  INTEG_INFO| Started with Integration point  13 of 100
  INTEG_INFO| Started with Integration point  14 of 100
  INTEG_INFO| Started with Integration point  15 of 100
  INTEG_INFO| Started with Integration point  16 of 100
  INTEG_INFO| Started with Integration point  17 of 100
  INTEG_INFO| Started with Integration point  18 of 100
  INTEG_INFO| Started with Integration point  19 of 100
  INTEG_INFO| Started with Integration point  20 of 100
  INTEG_INFO| Started with Integration point  21 of 100
  INTEG_INFO| Started with Integration point  22 of 100
  INTEG_INFO| Started with Integration point  23 of 100
  INTEG_INFO| Started with Integration point  24 of 100
  INTEG_INFO| Started with Integration point  25 of 100
  INTEG_INFO| Started with Integration point  26 of 100
  INTEG_INFO| Started with Integration point  27 of 100
  INTEG_INFO| Started with Integration point  28 of 100
  INTEG_INFO| Started with Integration point  29 of 100
  INTEG_INFO| Started with Integration point  30 of 100
  INTEG_INFO| Started with Integration point  31 of 100
  INTEG_INFO| Started with Integration point  32 of 100
  INTEG_INFO| Started with Integration point  33 of 100
  INTEG_INFO| Started with Integration point  34 of 100
  INTEG_INFO| Started with Integration point  35 of 100
  INTEG_INFO| Started with Integration point  36 of 100
  INTEG_INFO| Started with Integration point  37 of 100
  INTEG_INFO| Started with Integration point  38 of 100
  INTEG_INFO| Started with Integration point  39 of 100
  INTEG_INFO| Started with Integration point  40 of 100
  INTEG_INFO| Started with Integration point  41 of 100
  INTEG_INFO| Started with Integration point  42 of 100
  INTEG_INFO| Started with Integration point  43 of 100
  INTEG_INFO| Started with Integration point  44 of 100
  INTEG_INFO| Started with Integration point  45 of 100
  INTEG_INFO| Started with Integration point  46 of 100
  INTEG_INFO| Started with Integration point  47 of 100
  INTEG_INFO| Started with Integration point  48 of 100
  INTEG_INFO| Started with Integration point  49 of 100
  INTEG_INFO| Started with Integration point  50 of 100
  INTEG_INFO| Started with Integration point  51 of 100
  INTEG_INFO| Started with Integration point  52 of 100
  INTEG_INFO| Started with Integration point  53 of 100
  INTEG_INFO| Started with Integration point  54 of 100
  INTEG_INFO| Started with Integration point  55 of 100
  INTEG_INFO| Started with Integration point  56 of 100
  INTEG_INFO| Started with Integration point  57 of 100
  INTEG_INFO| Started with Integration point  58 of 100
  INTEG_INFO| Started with Integration point  59 of 100
  INTEG_INFO| Started with Integration point  60 of 100
  INTEG_INFO| Started with Integration point  61 of 100
  INTEG_INFO| Started with Integration point  62 of 100
  INTEG_INFO| Started with Integration point  63 of 100
  INTEG_INFO| Started with Integration point  64 of 100
  INTEG_INFO| Started with Integration point  65 of 100
  INTEG_INFO| Started with Integration point  66 of 100
  INTEG_INFO| Started with Integration point  67 of 100
  INTEG_INFO| Started with Integration point  68 of 100
  INTEG_INFO| Started with Integration point  69 of 100
  INTEG_INFO| Started with Integration point  70 of 100
  INTEG_INFO| Started with Integration point  71 of 100
  INTEG_INFO| Started with Integration point  72 of 100
  INTEG_INFO| Started with Integration point  73 of 100
  INTEG_INFO| Started with Integration point  74 of 100
  INTEG_INFO| Started with Integration point  75 of 100
  INTEG_INFO| Started with Integration point  76 of 100
  INTEG_INFO| Started with Integration point  77 of 100
  INTEG_INFO| Started with Integration point  78 of 100
  INTEG_INFO| Started with Integration point  79 of 100
  INTEG_INFO| Started with Integration point  80 of 100
  INTEG_INFO| Started with Integration point  81 of 100
  INTEG_INFO| Started with Integration point  82 of 100
  INTEG_INFO| Started with Integration point  83 of 100
  INTEG_INFO| Started with Integration point  84 of 100
  INTEG_INFO| Started with Integration point  85 of 100
  INTEG_INFO| Started with Integration point  86 of 100
  INTEG_INFO| Started with Integration point  87 of 100
  INTEG_INFO| Started with Integration point  88 of 100
  INTEG_INFO| Started with Integration point  89 of 100
  INTEG_INFO| Started with Integration point  90 of 100
  INTEG_INFO| Started with Integration point  91 of 100
  INTEG_INFO| Started with Integration point  92 of 100
  INTEG_INFO| Started with Integration point  93 of 100
  INTEG_INFO| Started with Integration point  94 of 100
  INTEG_INFO| Started with Integration point  95 of 100
  INTEG_INFO| Started with Integration point  96 of 100
  INTEG_INFO| Started with Integration point  97 of 100
  INTEG_INFO| Started with Integration point  98 of 100
  INTEG_INFO| Started with Integration point  99 of 100
  INTEG_INFO| Started with Integration point 100 of 100
  PERFORMANCE| Average DGEMM flop rate (Gflops / MPI rank):                 0.00
  
  
  ******************************************************************************
  **                                                                          **
  **                        GW QUASIPARTICLE ENERGIES                         **
  **                                                                          **
  ******************************************************************************
   
   
  The GW quasiparticle energies are calculated according to: 
   
                      E_GW = E_SCF + Sigc(E_GW) + Sigx - vxc 
   
  Upper equation is solved self-consistently for E_GW, see Eq. (12) in J. Phys.
  Chem. Lett. 9, 306 (2018), doi: 10.1021/acs.jpclett.7b02740
  
  
  ------------
  G0W0 results
  ------------
   
  Molecular orbital   E_SCF (eV)       Sigc (eV)   Sigx-vxc (eV)       E_GW (eV)
     1 ( occ )          -54.5925          3.5017        -11.6742        -62.7651
     2 ( occ )           -5.3632          1.2597         -2.8071         -6.9106
     3 ( vir )           -1.0048         -0.2501          1.4672          0.2122
     4 ( vir )            0.7319         -0.4565          2.0818          2.3572
     5 ( vir )            0.7319         -0.4565          2.0818          2.3572
     6 ( vir )            2.3641         -0.2924          1.3930          3.4646
     7 ( vir )            3.6639         -0.3408          1.8585          5.1815
     8 ( vir )            3.9922         -0.5437          1.7736          5.2222
     9 ( vir )            3.9922         -0.5437          1.7736          5.2222
    10 ( vir )            5.1717         -0.8633          2.3463          6.6547
    11 ( vir )            6.8380         -1.9836          2.2783          7.1328
    12 ( vir )            6.8380         -1.9839          2.2783          7.1325
    13 ( vir )            9.8620         -0.5857          3.3620         12.6383
    14 ( vir )            9.8620         -0.5855          3.3620         12.6385
    15 ( vir )           10.6690         -0.3576          2.3439         12.6553
    16 ( vir )           11.9058         -0.7004          3.3919         14.5974
    17 ( vir )           12.0587         -0.2360          2.7414         14.5641
    18 ( vir )           12.0587         -0.2360          2.7414         14.5641
    19 ( vir )           16.1690         -1.1991          3.3767         18.3466
    20 ( vir )           41.7813          0.4625          6.7293         48.9731
   
  G0W0 HOMO-LUMO gap (eV)                                                 7.1228
  
  ------------------------------------------------------------------------------
  
 *******************************************************************************
 **                                                                           **
 **           Bethe Salpeter equation (BSE) for excitation energies           **
 **               solved without Tamm-Dancoff approximation (TDA)             **
 **                                                                           **
 *******************************************************************************
  
 BSE| No cutoff given for occupied orbitals
 BSE| No cutoff given for empty orbitals
 BSE| First occupied index                                                     1
 BSE| Last empty index (not MO index!)                                        18
 BSE| Energy of first occupied index [eV]                                -62.765
 BSE| Energy of last empty index [eV]                                     48.973
 BSE| Energy difference of first occupied index to HOMO [eV]              55.854
 BSE| Energy difference of last empty index to LUMO [eV]                  48.761
 BSE| Number of GW-corrected occupied MOs                                      2
 BSE| Number of GW-corrected empty MOs                                        18
 BSE|
 BSE| No truncation of BSE matrices applied
 BSE|
 BSE| Total peak memory estimate from BSE [GB]                         9.656E-05
 BSE| Peak memory estimate per MPI rank from BSE [GB]                      0.000
 BSE|
 BSE| Diagonalizing aux. matrix with size of A. This will take around 0.E+00 s.
 BSE| Diagonalizing C. This will take around 0.E+00 s.
 BSE|
 BSE|
 BSE| **************************************************************************
 BSE| *      Full ("ABBA") Bethe Salpeter equation (BSE) (i.e. without TDA)    *
 BSE| **************************************************************************
 BSE|
 BSE| The excitations are calculated by diagonalizing the BSE without the TDA:
 BSE|
 BSE|                |A B| |X^n|       |1  0| |X^n|
 BSE|                |B A| |Y^n| = ^n |0 -1| |Y^n|
 BSE|
 BSE| i.e. in index notation:
 BSE|
 BSE|   sum_jb ( A_ia,jb   X_jb^n + B_ia,jb   Y_jb^n ) = ^n X_ia^n
 BSE| - sum_jb ( B_ia,jb   X_jb^n + A_ia,jb   Y_jb^n ) = ^n Y_ia^n
 BSE|
 BSE|
 BSE| i,j:       occupied molecular orbitals, i.e. state in          [   1,   2]
 BSE| a,b:       unoccupied molecular orbitals, i.e. state in        [   3,  20]
 BSE| n:         Excitation index
 BSE|
 BSE| A_ia,jb = (_a-_i) _ij _ab +  * v_ia,jb - W_ij,ab
 BSE| B_ia,jb =  * v_ia,jb - W_ib,aj
 BSE|
 BSE| prelim Ref.: Eqs. (24-27),(30),(35)
 BSE| in PRB 92,045209 (2015); http://dx.doi.org/10.1103/PhysRevB.92.045209 .
 BSE|
 BSE| The BSE is solved for ^n and X_ia^n as a hermitian problem, e.g. Eq.(42)
 BSE| in PRB 92,045209 (2015); http://dx.doi.org/10.1103/PhysRevB.92.045209 .
 BSE|
 BSE| _...:                 GW quasiparticle energy
 BSE| _...:                 Kronecker delta
 BSE| :                     spin-dependent factor
 BSE| v_...:                 Electron-hole exchange interaction
 BSE| W_... = 1/ v_...:     Direct interaction screened by 
 BSE|                        dielectric function (=0)
 BSE|
 BSE|
 BSE| The spin-dependent factor is for the requested Singlet is  = 2.0
 BSE|
 BSE| Excitation energies from solving the BSE without the TDA:
 BSE|
 BSE|     Excitation n   Spin Config       TDA/ABBA   Excitation energy ^n (eV)
 BSE|                1       Singlet         -ABBA-                       2.5615
 BSE|                2       Singlet         -ABBA-                       4.0326
 BSE|                3       Singlet         -ABBA-                       4.0326
 BSE|                4       Singlet         -ABBA-                       6.4332
 BSE|                5       Singlet         -ABBA-                       7.1884
 BSE|                6       Singlet         -ABBA-                       7.2018
 BSE|                7       Singlet         -ABBA-                       7.2018
 BSE|                8       Singlet         -ABBA-                       8.2771
 BSE|                9       Singlet         -ABBA-                       8.2773
 BSE|               10       Singlet         -ABBA-                       9.3712
 BSE|               11       Singlet         -ABBA-                      13.3419
 BSE|               12       Singlet         -ABBA-                      13.3421
 BSE|               13       Singlet         -ABBA-                      13.9908
 BSE|               14       Singlet         -ABBA-                      15.6246
 BSE|               15       Singlet         -ABBA-                      15.6246
 BSE|               16       Singlet         -ABBA-                      16.3061
 BSE|               17       Singlet         -ABBA-                      20.1126
 BSE|               18       Singlet         -ABBA-                      50.7354
 BSE|               19       Singlet         -ABBA-                      55.0869
 BSE|               20       Singlet         -ABBA-                      56.9694
 BSE|               21       Singlet         -ABBA-                      56.9694
 BSE|               22       Singlet         -ABBA-                      60.9696
 BSE|               23       Singlet         -ABBA-                      61.5213
[...]
 -                                                                             -
 -------------------------------------------------------------------------------

 ROUTINE             CALLS      AVE VOLUME [Bytes]
 MP_Group              216
 MP_Bcast              517                 641684.
 MP_Allreduce         5436                   2606.
 MP_Sync               801
 MP_Alltoall          2015              109891081.
 MP_SendRecv          3407                 532039.
 MP_ISendRecv         6762                 269347.
 MP_Wait             20514
 MP_comm_split         124
 MP_ISend            12728                2109151.
 MP_IRecv            12762                2103537.
 -------------------------------------------------------------------------------


 -------------------------------------------------------------------------------
 -                                                                             -
 -                           R E F E R E N C E S                               -
 -                                                                             -
 -------------------------------------------------------------------------------
 
 CP2K version 2025.1 (Development Version), the CP2K developers group (2025).
 CP2K is freely available from https://www.cp2k.org/ .
 
 T. D. Kuehne, M. Iannuzzi, M. Del Ben, V. V. Rybkin, P. Seewald, F. Stein, T. 
 Laino, R. Z. Khaliullin, O. Schuett, F. Schiffmann, D. Golze, J. Wilhelm, S. 
 Chulkov, M. H. Bani-Hashemian, V. Weber, U. Borstnik, M. Taillefumier, A. S. 
 Jakobovits, A. Lazzaro, H. Pabst, T. Mueller, R. Schade, M. Guidon, S. 
 Andermatt, N. Holmberg, G. K. Schenter, A. Hehn, A. Bussy, F. Belleflamme, G. 
 Tabacchi, A. Gloess, M. Lass, I. Bethune, C. J. Mundy, C. Plessl, M. Watkins, 
 J. VandeVondele, M. Krack, J. Hutter.
 J. Chem. Phys. 152, 194103 (2020).
 CP2K: An electronic structure and molecular dynamics software package - 
 Quickstep: Efficient and accurate electronic structure calculations.
 https://doi.org/10.1063/5.0007045

 J. Wilhelm, D. Golze, L. Talirz, J. Hutter, C. A. Pignedoli.
 J. Phys. Chem. Lett. 9, 306-312 (2018).
 Toward GW calculations on thousands of atoms.
 https://doi.org/10.1021/acs.jpclett.7b02740

 J. Wilhelm, J. Hutter.
 Phys. Rev. B 95, 235123 (2017).
 Periodic GW calculations in the Gaussian and plane-waves scheme.
 https://doi.org/10.1103/PhysRevB.95.235123

 O. Schuett, P. Messmer, J. Hutter, J. VandeVondele.
 Electronic Structure Calculations on Graphics Processing Units, 173-190 (2016).
 GPU-Accelerated Sparse Matrix-Matrix Multiplication for Linear Scaling Density 
 Functional Theory.
 https://doi.org/10.1002/9781118670712.ch8

 J. Wilhelm, M. Del Ben, J. Hutter.
 J. Chem. Theory Comput. 12, 3623-3635 (2016).
 GW in the Gaussian and plane waves scheme with application to linear acenes.
 https://doi.org/10.1021/acs.jctc.6b00380

 M. Del Ben, O. Schuett, T. Wentz, P. Messmer, J. Hutter, J. VandeVondele.
 Comput. Phys. Commun. 187, 120-129 (2015).
 Enabling simulation at the fifth rung of DFT: Large scale RPA calculations with 
 excellent time to solution.
 https://doi.org/10.1016/j.cpc.2014.10.021

 J. Hutter, M. Iannuzzi, F. Schiffmann, J. VandeVondele.
 WIREs Comput Mol Sci. 4, 15-25 (2014).
 CP2K: atomistic simulations of condensed matter systems.
 https://doi.org/10.1002/wcms.1159

 U. Borstnik, J. VandeVondele, V. Weber, J. Hutter.
 Parallel Comput. 40, 47-58 (2014).
 Sparse matrix multiplication: The distributed block-compressed sparse row 
 library.
 https://doi.org/10.1016/j.parco.2014.03.012

 M. Del Ben, J. Hutter, J. VandeVondele.
 J. Chem. Theory Comput. 9, 2654-2671 (2013).
 Electron Correlation in the Condensed Phase from a Resolution of Identity 
 Approach Based on the Gaussian and Plane Waves Scheme.
 https://doi.org/10.1021/ct4002202

 M. Del Ben, J. Hutter, J. VandeVondele.
 J. Chem. Theory Comput. 8, 4177-4188 (2012).
 Second-Order Moller-Plesset Perturbation Theory in the Condensed Phase: An 
 Efficient and Massively Parallel Gaussian and Plane Waves Approach.
 https://doi.org/10.1021/ct300531w

 M. Guidon, J. Hutter, J. VandeVondele.
 J. Chem. Theory Comput. 5, 3010-3021 (2009).
 Robust Periodic Hartree-Fock Exchange for Large-Scale Simulations Using 
 Gaussian Basis Sets.
 https://doi.org/10.1021/ct900494g

 M. Guidon, F. Schiffmann, J. Hutter, J. VandeVondele.
 J. Chem. Phys. 128, 214104 (2008).
 Ab initio molecular dynamics using hybrid density functionals.
 https://doi.org/10.1063/1.2931945

 L. Genovese, T. Deutsch, S. Goedecker.
 J. Chem. Phys. 127, 054704 (2007).
 Efficient and accurate three-dimensional Poisson solver for surface problems.
 https://doi.org/10.1063/1.2754685

 J. VandeVondele, J. Hutter.
 J. Chem. Phys. 127, 114105 (2007).
 Gaussian basis sets for accurate calculations on molecular systems in gas and 
 condensed phases.
 https://doi.org/10.1063/1.2770708

 L. Genovese, T. Deutsch, A. Neelov, S. Goedecker, G. Beylkin.
 J. Chem. Phys. 125, 074105 (2006).
 Efficient solution of Poisson's equation with free boundary conditions.
 https://doi.org/10.1063/1.2335442

 M. Frigo, S. G. Johnson.
 Proc. IEEE 93, 216-231 (2005).
 The design and implementation of FFTW3.
 https://doi.org/10.1109/JPROC.2004.840301

 M. Krack, M. Parrinello.
 Phys. Chem. Chem. Phys. 2, 2105-2112 (2000).
 All-electron ab-initio molecular dynamics.
 https://doi.org/10.1039/b001167n

 G. Lippert, J. Hutter, M. Parrinello.
 Theor. Chem. Acc. 103, 124-140 (1999).
 The Gaussian and augmented-plane-wave density functional method for ab initio 
 molecular dynamics simulations.
 https://doi.org/10.1007/s002140050523

 J. P. Perdew, K. Burke, M. Ernzerhof.
 Phys. Rev. Lett. 77, 3865-3868 (1996).
 Generalized gradient approximation made simple.
 https://doi.org/10.1103/PhysRevLett.77.3865


 -------------------------------------------------------------------------------
 -                                                                             -
 -                                T I M I N G                                  -
 -                                                                             -
 -------------------------------------------------------------------------------
 SUBROUTINE                       CALLS  ASD         SELF TIME        TOTAL TIME
                                MAXIMUM       AVERAGE  MAXIMUM  AVERAGE  MAXIMUM
 CP2K                                 1  1.0    0.047    0.072  397.763  397.763
 qs_energies                          1  2.0    0.001    0.001  396.475  396.708
 scf_env_do_scf                       1  3.0    0.000    0.000  391.904  391.905
 scf_env_do_scf_inner_loop           72  4.0    0.002    0.005  391.904  391.905
 qs_ks_build_kohn_sham_matrix        73  7.0    0.012    0.013  294.137  294.142
 qs_ks_update_qs_env                 72  5.0    0.001    0.001  291.573  291.579
 rebuild_ks_matrix                   72  6.0    0.000    0.000  291.570  291.575
 fft_wrap_pw1pw2                   1525  9.9    0.037    0.046  176.023  177.837
 fft_wrap_pw1pw2_250               1087 11.1    7.767    8.682  170.577  172.668
 fft3d_ps                          1525 11.9   76.269   79.106  138.672  140.614
 pw_poisson_solve                    73  8.0    3.206    3.331  118.335  118.375
 qs_vxc_create                       73  8.0    0.001    0.001  106.419  106.419
 xc_vxc_pw_create                    72  9.0    1.981    2.063  106.418  106.418
 ps_wavelet_solve                    73  9.0   66.760   70.558   78.554   78.747
 xc_pw_derive                       432 11.0    0.006    0.007   76.238   77.451
 mp_alltoall_d54                     73 10.0    7.136   61.639    7.136   61.639
 gspace_mixing                       71  5.0    1.458    1.478   54.858   54.858
 xc_rho_set_and_dset_create          72 10.0    1.500    1.757   52.851   54.106
 xc_pw_divergence                    72 10.0    0.003    0.004   50.657   51.674
 mp_alltoall_z22v                  1525 13.9   38.617   49.410   38.617   49.410
 qs_rho_update_rho_low               73  5.0    0.001    0.001   45.707   45.707
 calculate_rho_elec                  73  6.0    1.585    1.602   45.661   45.661
 broyden_mixing                      71  6.0   40.565   41.196   41.568   42.386
 x_to_yz                            797 13.1   16.130   16.421   35.102   35.812
 yz_to_x                            728 12.8    7.634    9.153   27.279   34.291
 density_rs2pw                       73  7.0    0.005    0.006   33.704   34.084
 sum_up_and_integrate                73  8.0    0.001    0.001   24.349   24.385
 integrate_v_rspace                  73  9.0    0.002    0.003   23.900   23.963
 potential_pw2rs                     73 10.0    0.067    0.073   23.404   23.474
 prepare_gapw_den                    73  8.0    0.001    0.001   19.157   19.434
 put_rho0_on_grid                    73  9.0    1.489    1.506   18.578   18.855
 transfer_pw2rs                     366 10.6    0.006    0.007   13.931   14.034
 pw_scatter_p                       797 12.1   12.664   12.933   12.664   12.933
 xc_functional_eval                 216 10.9    0.001    0.002   11.414   12.448
 pbe_lda_eval                       216 11.9   11.414   12.446   11.414   12.446
 transfer_rs2pw                     367  8.4    0.011    0.014   11.983   12.190
 pw_gather_p                        728 11.8   10.613   11.380   10.613   11.380
 mp_waitany                       12348 11.5    9.832   10.661    9.832   10.661
 transfer_pw2rs_250                 147 11.0    3.714    3.918   10.215   10.457
 grid_collocate_task_list            73  7.0    9.795   10.151    9.795   10.151
 transfer_rs2pw_250                 148 10.0    3.893    4.108    8.962    9.184
 pw_derive                          651 11.3    8.644    9.071    8.644    9.071
 mp_sum_d                          1627  6.2    4.140    6.968    4.140    6.968
 integrate_vhg0_rspace               73  8.0    0.022    0.025    6.377    6.384
 fft_wrap_pw1pw2_90                 146 10.5    0.222    0.327    4.451    5.152
 mp_alltoall_d45                     74 10.0    3.850    5.029    3.850    5.029
 pw_copy                           1090 10.6    4.660    4.990    4.660    4.990
 cp2k_distribution_to_z_slices       73  9.0    2.881    3.027    4.500    4.968
 hfx_ks_matrix                       73  8.0    0.003    0.003    4.556    4.643
 integrate_four_center               73  9.0    1.457    3.056    4.552    4.638
 pw_poisson_set                      74  8.9    0.003    0.003    4.328    4.368
 pw_copy_to_array                   728 11.8    3.829    4.294    3.829    4.294
 pw_axpy                            798  9.2    3.695    4.058    3.695    4.058
 mp_alltoall_d11v                  1288  9.4    3.065    4.046    3.065    4.046
 mp_sync                            801  9.5    2.318    3.765    2.318    3.765
 rs_grid_zero                       368 11.1    3.231    3.311    3.231    3.311
 mp2_main                             1  3.0    0.000    0.000    3.048    3.280
 pw_integral_ab_c1d_c1d_gs           73  9.0    2.178    2.419    2.574    2.712
 pw_copy_from_array                 797 12.1    2.174    2.613    2.174    2.613
 compute_vec_Sigma_x_minus_vxc_       1  4.0    0.000    0.000    2.571    2.571
 transfer_pw2rs_90                   73 12.0    0.584    0.645    1.903    2.033
 pw_poisson_rebuild                  73  9.0    0.000    0.000    1.829    1.856
 ps_wavelet_create                    1 10.0    0.000    0.000    1.829    1.856
 RS_z_slice_distribution              1 11.0    1.661    1.728    1.829    1.856
 pw_zero                            434 10.3    1.475    1.541    1.475    1.541
 transfer_rs2pw_90                   73  9.0    0.461    0.482    1.449    1.535
 mp_isend_dv                      12316 11.6    1.010    1.521    1.010    1.521
 transfer_pw2rs_30                   73 12.0    0.820    0.870    1.387    1.499
 mp_waitall_1                     12805 12.1    0.963    1.333    0.963    1.333
 mp_sum_dm                          296  7.6    0.880    1.297    0.880    1.297
 calculate_vxc_atom                  73  8.0    0.013    0.114    1.296    1.296
 transfer_rs2pw_30                   73  9.0    0.642    0.660    1.245    1.271
 gaVxcgb_GC                          72  9.0    0.047    1.128    0.047    1.128
 scale_and_distribute               146 10.0    0.976    1.026    0.976    1.026
 Vh_1c_gg_integrals                  73  8.0    0.008    0.099    0.322    0.998
 init_scf_run                         1  3.0    0.000    0.000    0.971    0.972
 scf_env_initial_rho_setup            1  4.0    0.000    0.000    0.969    0.970
 integrate_four_center_main          73 10.0    0.047    0.857    0.052    0.959
 mp_max_i                           563  2.9    0.484    0.959    0.484    0.959
 mp_isend_dm3                      1764 11.5    0.512    0.868    0.512    0.868
 qs_init_subsys                       1  2.0    0.008    0.008    0.858    0.858
 qs_env_setup                         1  3.0    0.000    0.000    0.846    0.847
 qs_env_rebuild_pw_env                2  3.5    0.000    0.000    0.845    0.846
 pw_env_rebuild                       1  5.0    0.001    0.001    0.845    0.845
 mp_sendrecv_dv                    3358 10.0    0.798    0.844    0.798    0.844
 pw_grid_setup                        4  6.0    0.000    0.000    0.836    0.836
 pw_grid_setup_internal               4  7.0    0.019    0.023    0.836    0.836
 fft_wrap_pw1pw2_30                 146 10.5    0.035    0.041    0.782    0.816
 mp_irecv_dm3                      1764 11.5    0.501    0.764    0.501    0.764
 mp_sum_dv                         1942 11.3    0.625    0.747    0.625    0.747
 pw_grid_sort                         4  8.0    0.470    0.474    0.666    0.674
 calculate_rho_atom                  73  9.0    0.137    0.562    0.137    0.562
 calc_screening_functions             1 10.0    0.375    0.392    0.504    0.526
 pw_scale                           289  9.5    0.449    0.509    0.449    0.509
 rs_gather_matrices                  73 10.0    0.001    0.003    0.395    0.489
 grid_integrate_task_list            73 10.0    0.100    0.478    0.100    0.478
 transfer_pw2rs_10                   73 12.0    0.177    0.183    0.419    0.462
 qs_scf_new_mos                      72  5.0    0.001    0.001    0.409    0.421
 mp_isendrecv_dv                   6716 12.0    0.213    0.407    0.213    0.407
 mp_sum_i                            17  9.9    0.233    0.403    0.233    0.403
 restraint_control                    1  2.0    0.000    0.000    0.233    0.403
 mp2_main_alloc_hfx                   1  4.0    0.170    0.403    0.170    0.403
 qs_energies_init_hamiltonians        1  3.0    0.000    0.000    0.366    0.366
 qs_env_update_s_mstruct              1  4.0    0.000    0.000    0.326    0.326
 transfer_rs2pw_10                   73  9.0    0.120    0.126    0.316    0.324
 calculate_rho_core                   1  5.0    0.020    0.020    0.311    0.323
 mp2_gpw_main                         1  4.0    0.000    0.000    0.292    0.302
 mixing_init                          1  5.0    0.288    0.293    0.294    0.294
 xc_pw_smooth                        72 10.0    0.000    0.000    0.198    0.253
 powell_optimize                  84984 11.0    0.221    0.234    0.221    0.234
 rpa_ri_compute_en                    1  5.0    0.000    0.001    0.211    0.211
 rpa_num_int                          1  6.0    0.001    0.001    0.209    0.209
 sort_shells                          4  9.0    0.196    0.200    0.196    0.200
 fft_wrap_pw1pw2_10                 146 10.5    0.008    0.010    0.176    0.197
 scf_post_calculation_gpw             1  3.0    0.000    0.000    0.184    0.185
 write_available_results              1  4.0    0.000    0.000    0.184    0.185
 write_mo_free_results                1  5.0    0.030    0.032    0.184    0.185
 calc_pair_dist_radii                 1 10.0    0.080    0.084    0.173    0.182
 eigensolver                         73  6.0    0.005    0.006    0.181    0.182
 cp_fm_syevd                         76  7.0    0.001    0.001    0.174    0.175
 calculate_dm_sparse                 72  6.0    0.000    0.001    0.167    0.169
 cp_dbcsr_plus_fm_fm_t               72  7.0    0.001    0.001    0.166    0.168
 mp_irecv_dv                      12272 11.6    0.094    0.141    0.094    0.141
 dbcsr_multiply_generic              93  8.1    0.004    0.005    0.131    0.135
 cp_fm_redistribute_end              76  8.0    0.080    0.131    0.081    0.133
 pw_grid_assign                       4  8.0    0.104    0.107    0.107    0.108
 integrate_four_center_bin         5665 11.0    0.005    0.103    0.005    0.103
 cp_fm_syevd_base                    76  8.0    0.051    0.102    0.051    0.102
 rpa_num_int_RPA_matrix_operati     100  7.0    0.001    0.002    0.099    0.100
 mp_sum_l                           901  5.9    0.051    0.089    0.051    0.089
 calculate_hirshfeld_normalizat       1  6.0    0.001    0.005    0.076    0.080
 create_qs_kind_set                   1  2.0    0.000    0.000    0.077    0.079
 read_qs_kind                         2  3.0    0.020    0.030    0.077    0.079
 dbcsr_complete_redistribute        239  8.4    0.009    0.011    0.076    0.078
 copy_dbcsr_to_fm                    91  6.3    0.002    0.002    0.067    0.076
 compute_GW_self_energy             100  7.0    0.001    0.001    0.074    0.075
 hirshfeld_integration                1  6.0    0.001    0.002    0.072    0.075
 calc_mat_Q                         100  8.0    0.000    0.000    0.071    0.073
 contract_S_to_Q                    100  9.0    0.000    0.000    0.070    0.072
 make_m2s                           186  9.1    0.004    0.004    0.068    0.071
 integrate_four_center_load          73 10.0    0.001    0.001    0.034    0.069
 hfx_load_balance                     1 11.0    0.000    0.000    0.034    0.068
 hfx_load_balance_range               1 12.0    0.000    0.000    0.031    0.066
 mp2_ri_gpw_compute_in                1  5.0    0.000    0.000    0.065    0.065
 mp2_ri_gpw_compute_in_loop           1  6.0    0.000    0.000    0.062    0.062
 parser_read_line                  3218  4.0    0.001    0.001    0.057    0.060
 parser_read_line_low                10  5.0    0.006    0.020    0.055    0.059
 cp_fm_to_fm_submat_general         112 10.1    0.055    0.057    0.055    0.057
 contract_B_L                         4  7.0    0.001    0.001    0.056    0.057
 broadcast_input_information         10  6.0    0.012    0.017    0.049    0.056
 vxc_of_r_new                       144  9.0    0.000    0.007    0.002    0.049
 parallel_gemm_fm                   217  9.5    0.000    0.000    0.048    0.049
 parallel_gemm_fm_gemm              217 10.5    0.000    0.000    0.048    0.049
 cp_fm_gemm                         217 11.5    0.048    0.049    0.048    0.049
 compute_GW_self_energy_deep        100  8.0    0.021    0.022    0.047    0.048
 offload_free_buffer                 81  8.4    0.040    0.046    0.040    0.046
 calculate_rho_atom_coeff            73  6.0    0.011    0.020    0.045    0.046
 copy_fm_to_dbcsr                   148  8.1    0.001    0.001    0.042    0.044
 multiply_cannon                     93  9.1    0.007    0.008    0.042    0.044
 cp_fm_redistribute_start            76  8.0    0.033    0.034    0.041    0.042
 -------------------------------------------------------------------------------

 The number of warnings for this run is : 1
 
 -------------------------------------------------------------------------------
  **** **** ******  **  PROGRAM ENDED AT                 2025-03-04 06:59:10.590
 ***** ** ***  *** **   PROGRAM RAN ON                              i01r04c04s12
 **    ****   ******    PROGRAM RAN BY                                   di38fab
 ***** **    ** ** **   PROGRAM PROCESS ID                                168504
  **** **  *******  **  PROGRAM STOPPED IN /hppfs/scratch/04/di38fab/05_MOL/W4-1
                                           1+ALK/li_h/SZVSR
