 DBCSR| CPU Multiplication driver                                           BLAS (U)
 DBCSR| Multrec recursion limit                                              512 (U)
 DBCSR| Multiplication stack size                                           1000 (D)
 DBCSR| Maximum elements for images                                    UNLIMITED (U)
 DBCSR| Multiplicative factor virtual images                                   1 (U)
 DBCSR| Use multiplication densification                                       T (D)
 DBCSR| Multiplication size stacks                                             3 (U)
 DBCSR| Use memory pool for CPU allocation                                     F (U)
 DBCSR| Number of 3D layers                                               SINGLE (U)
 DBCSR| Use MPI memory allocation                                              F (U)
 DBCSR| Use RMA algorithm                                                      F (U)
 DBCSR| Use Communication thread                                               T (U)
 DBCSR| Communication thread load                                             75 (D)
 DBCSR| MPI: My process id                                                     0
 DBCSR| MPI: Number of processes                                              24
 DBCSR| OMP: Current number of threads                                         4
 DBCSR| OMP: Max number of threads                                             4
 DBCSR| Split modifier for TAS multiplication algorithm                  1.0E+00 (U)


  **** **** ******  **  PROGRAM STARTED AT               2025-03-04 07:52:12.414
 ***** ** ***  *** **   PROGRAM STARTED ON                          i01r08c01s06
 **    ****   ******    PROGRAM STARTED BY                               di38fab
 ***** **    ** ** **   PROGRAM PROCESS ID                                831738
  **** **  *******  **  PROGRAM STARTED IN /hppfs/scratch/04/di38fab/05_MOL/W4-1
                                           1+ALK/bn3pi/SZVSR

 CP2K| version string:                 CP2K version 2025.1 (Development Version)
 CP2K| source code revision number:                                  git:47877ba
 CP2K| cp2kflags: omp libint fftw3 libxc parallel scalapack max_contr=4         
 CP2K| is freely available from                            https://www.cp2k.org/
 CP2K| Program compiled at                          Thu Feb 20 16:00:34 CET 2025
 CP2K| Program compiled on                                               login04
 CP2K| Program compiled for                                        Supermuc-foss
 CP2K| Data directory path          /hppfs/work/pn36zo/di38fab/newcp2k/cp2k/data
 CP2K| Input file name                                                    GW.inp

 GLOBAL| Force Environment number                                              1
 GLOBAL| Basis set file name            /hppfs/scratch/04/di38fab/04_TMD/BASIS_A
 GLOBAL| Potential file name            /hppfs/work/pn36zo/di38fab/cp2k/data/ALL
 GLOBAL| MM Potential file name                                     MM_POTENTIAL
 GLOBAL| Coordinate file name                                      __STD_INPUT__
 GLOBAL| Method name                                                        CP2K
 GLOBAL| Project name                                                       MoS2
 GLOBAL| Run type                                                         ENERGY
 GLOBAL| FFT library                                                       FFTW3
 GLOBAL| Diagonalization library                                       ScaLAPACK
 GLOBAL| DGEMM library                                                      BLAS
 GLOBAL| Orthonormality check for eigenvectors                          DISABLED
 GLOBAL| Matrix multiplication library                                 ScaLAPACK
 GLOBAL| All-to-all communication in single precision                          F
 GLOBAL| FFTs using library dependent lengths                                  F
 GLOBAL| Grid backend                                                       AUTO
 GLOBAL| Global print level                                               MEDIUM
 GLOBAL| MPI I/O enabled                                                       T
 GLOBAL| Total number of message passing processes                            24
 GLOBAL| Number of threads for this process                                    4
 GLOBAL| This output is from process                                           0
 GLOBAL| OpenMP stack size per thread (OMP_STACKSIZE)                    default
 GLOBAL| CPU model name             Intel(R) Xeon(R) Platinum 8174 CPU @ 3.10GHz

 MEMORY| system memory details [Kb]
 MEMORY|                        rank 0           min           max       average
 MEMORY| MemTotal             98436664      98436664      98436708      98436686
 MEMORY| MemFree              83841728      83841728      83910580      83876154
 MEMORY| Buffers                     0             0             0             0
 MEMORY| Cached                2613056       2612004       2613056       2612530
 MEMORY| Slab                  1244620       1229336       1244620       1236978
 MEMORY| SReclaimable           275420        271176        275420        273298
 MEMORY| MemLikelyFree        86730204      86730204      86793760      86761982


 *** Fundamental physical constants (SI units) ***

 *** Literature: B. J. Mohr and B. N. Taylor,
 ***             CODATA recommended values of the fundamental physical
 ***             constants: 2006, Web Version 5.1
 ***             http://physics.nist.gov/constants

 Speed of light in vacuum [m/s]                             2.99792458000000E+08
 Magnetic constant or permeability of vacuum [N/A**2]       1.25663706143592E-06
 Electric constant or permittivity of vacuum [F/m]          8.85418781762039E-12
 Planck constant (h) [J*s]                                  6.62606896000000E-34
 Planck constant (h-bar) [J*s]                              1.05457162825177E-34
 Elementary charge [C]                                      1.60217648700000E-19
 Electron mass [kg]                                         9.10938215000000E-31
 Electron g factor [ ]                                     -2.00231930436220E+00
 Proton mass [kg]                                           1.67262163700000E-27
 Fine-structure constant                                    7.29735253760000E-03
 Rydberg constant [1/m]                                     1.09737315685270E+07
 Avogadro constant [1/mol]                                  6.02214179000000E+23
 Boltzmann constant [J/K]                                   1.38065040000000E-23
 Atomic mass unit [kg]                                      1.66053878200000E-27
 Bohr radius [m]                                            5.29177208590000E-11

 *** Conversion factors ***

 [u] -> [a.u.]                                              1.82288848426455E+03
 [Angstrom] -> [Bohr] = [a.u.]                              1.88972613288564E+00
 [a.u.] = [Bohr] -> [Angstrom]                              5.29177208590000E-01
 [a.u.] -> [s]                                              2.41888432650478E-17
 [a.u.] -> [fs]                                             2.41888432650478E-02
 [a.u.] -> [J]                                              4.35974393937059E-18
 [a.u.] -> [N]                                              8.23872205491840E-08
 [a.u.] -> [K]                                              3.15774647902944E+05
 [a.u.] -> [kJ/mol]                                         2.62549961709828E+03
 [a.u.] -> [kcal/mol]                                       6.27509468713739E+02
 [a.u.] -> [Pa]                                             2.94210107994716E+13
 [a.u.] -> [bar]                                            2.94210107994716E+08
 [a.u.] -> [atm]                                            2.90362800883016E+08
 [a.u.] -> [eV]                                             2.72113838565563E+01
 [a.u.] -> [Hz]                                             6.57968392072181E+15
 [a.u.] -> [1/cm] (wave numbers)                            2.19474631370540E+05
 [a.u./Bohr**2] -> [1/cm]                                   5.14048714338585E+03
 

 CELL_TOP| Volume [angstrom^3]:                                     27000.000000
 CELL_TOP| Vector a [angstrom    30.000     0.000     0.000   |a| =    30.000000
 CELL_TOP| Vector b [angstrom     0.000    30.000     0.000   |b| =    30.000000
 CELL_TOP| Vector c [angstrom     0.000     0.000    30.000   |c| =    30.000000
 CELL_TOP| Angle (b,c), alpha [degree]:                                90.000000
 CELL_TOP| Angle (a,c), beta  [degree]:                                90.000000
 CELL_TOP| Angle (a,b), gamma [degree]:                                90.000000
 CELL_TOP| Numerically orthorhombic:                                         YES
 CELL_TOP| Periodicity                                                      NONE

 GENERATE|  Preliminary Number of Bonds generated:                             0
 GENERATE|  Achieved consistency in connectivity generation.

 CELL| Volume [angstrom^3]:                                         27000.000000
 CELL| Vector a [angstrom]:      30.000     0.000     0.000   |a| =    30.000000
 CELL| Vector b [angstrom]:       0.000    30.000     0.000   |b| =    30.000000
 CELL| Vector c [angstrom]:       0.000     0.000    30.000   |c| =    30.000000
 CELL| Angle (b,c), alpha [degree]:                                    90.000000
 CELL| Angle (a,c), beta  [degree]:                                    90.000000
 CELL| Angle (a,b), gamma [degree]:                                    90.000000
 CELL| Numerically orthorhombic:                                             YES
 CELL| Periodicity                                                          NONE

 CELL_REF| Volume [angstrom^3]:                                     27000.000000
 CELL_REF| Vector a [angstrom    30.000     0.000     0.000   |a| =    30.000000
 CELL_REF| Vector b [angstrom     0.000    30.000     0.000   |b| =    30.000000
 CELL_REF| Vector c [angstrom     0.000     0.000    30.000   |c| =    30.000000
 CELL_REF| Angle (b,c), alpha [degree]:                                90.000000
 CELL_REF| Angle (a,c), beta  [degree]:                                90.000000
 CELL_REF| Angle (a,b), gamma [degree]:                                90.000000
 CELL_REF| Numerically orthorhombic:                                         YES
 CELL_REF| Periodicity                                                      NONE

 *******************************************************************************
 *******************************************************************************
 **                                                                           **
 **     #####                         ##              ##                      **
 **    ##   ##            ##          ##              ##                      **
 **   ##     ##                       ##            ######                    **
 **   ##     ##  ##   ##  ##   #####  ##  ##   ####   ##    #####    #####    **
 **   ##     ##  ##   ##  ##  ##      ## ##   ##      ##   ##   ##  ##   ##   **
 **   ##  ## ##  ##   ##  ##  ##      ####     ###    ##   ######   ######    **
 **    ##  ###   ##   ##  ##  ##      ## ##      ##   ##   ##       ##        **
 **     #######   #####   ##   #####  ##  ##  ####    ##    #####   ##        **
 **           ##                                                    ##        **
 **                                                                           **
 **                                                ... make the atoms dance   **
 **                                                                           **
 **            Copyright (C) by CP2K developers group (2000-2025)             **
 **                      J. Chem. Phys. 152, 194103 (2020)                    **
 **                                                                           **
 *******************************************************************************

 DFT| Spin restricted Kohn-Sham (RKS) calculation                            RKS
 DFT| Multiplicity                                                             1
 DFT| Number of spin states                                                    1
 DFT| Charge                                                                   0
 DFT| Self-interaction correction (SIC)                                       NO
 DFT| Cutoffs: density                                              1.000000E-10
 DFT|          gradient                                             1.000000E-10
 DFT|          tau                                                  1.000000E-10
 DFT|          cutoff_smoothing_range                               0.000000E+00
 DFT| XC density smoothing                                                  NONE
 DFT| XC derivatives                                                          PW

 FUNCTIONAL| PBE:
 FUNCTIONAL| J.P.Perdew, K.Burke, M.Ernzerhof, Phys. Rev. Letter, vol. 77, n 18,
 FUNCTIONAL|  pp. 3865-3868, (1996)sx=0.750sc=1.000{spin unpolarized}           


 QS| Method:                                                                GAPW
 QS| Density plane wave grid type                        NON-SPHERICAL FULLSPACE
 QS| Number of grid levels:                                                    4
 QS| Density cutoff [a.u.]:                                                250.0
 QS| Multi grid cutoff [a.u.]: 1) grid level                               250.0
 QS|                           2) grid level                                83.3
 QS|                           3) grid level                                27.8
 QS|                           4) grid level                                 9.3
 QS| Grid level progression factor:                                          3.0
 QS| Relative density cutoff [a.u.]:                                        50.0
 QS| Interaction thresholds: eps_pgf_orb:                                1.0E-12
 QS|                         eps_filter_matrix:                          0.0E+00
 QS|                         eps_core_charge:                            1.0E-14
 QS|                         eps_rho_gspace:                             1.0E-12
 QS|                         eps_rho_rspace:                             1.0E-12
 QS|                         eps_gvg_rspace:                             1.0E-06
 QS|                         eps_ppl:                                    1.0E-02
 QS|                         eps_ppnl:                                   1.0E-08
 QS| GAPW|      One center basis from orbital basis primitives
 QS| GAPW|                   eps_fit:                                    1.0E-04
 QS| GAPW|                   eps_iso:                                    1.0E-12
 QS| GAPW|                   eps_svd:                                    1.0E-08
 QS| GAPW|                   eps_cpc:                                    1.0E-12
 QS| GAPW|   atom-r-grid: quadrature:                                     GC_LOG
 QS| GAPW|      atom-s-grid:  max l :                                          4
 QS| GAPW|      max_l_rho0 :                                                   2


 ATOMIC KIND INFORMATION

  1. Atomic kind: B                                     Number of atoms:       1

     Orbital Basis Set                                         aug-SZV-MOLOPT-ae

       Number of orbital shell sets:                                           2
       Number of orbital shells:                                               6
       Number of primitive Cartesian functions:                               13
       Number of Cartesian basis functions:                                   15
       Number of spherical basis functions:                                   14
       Norm type:                                                              2

       Normalised Cartesian orbitals:

                        Set   Shell   Orbital            Exponent    Coefficient

                          1       1    1s                0.109280       0.032606
                                                         0.155613       0.000000
                                                         0.238409       0.144712
                                                         0.548949       0.113742
                                                         1.426820      -0.031435
                                                         4.590809      -0.105038
                                                        23.194561      -0.099829

                          1       2    2s                0.109280      -0.049098
                                                         0.155613      -0.119813
                                                         0.238409      -0.025283
                                                         0.548949       0.056653
                                                         1.426820       0.132404
                                                         4.590809       0.000000
                                                        23.194561       0.000000

                          1       3    2px               0.109280       0.009109
                                                         0.155613       0.000000
                                                         0.238409       0.101125
                                                         0.548949       0.281559
                                                         1.426820       0.386539
                                                         4.590809       0.360915
                                                        23.194561       0.272788
                          1       3    2py               0.109280       0.009109
                                                         0.155613       0.000000
                                                         0.238409       0.101125
                                                         0.548949       0.281559
                                                         1.426820       0.386539
                                                         4.590809       0.360915
                                                        23.194561       0.272788
                          1       3    2pz               0.109280       0.009109
                                                         0.155613       0.000000
                                                         0.238409       0.101125
                                                         0.548949       0.281559
                                                         1.426820       0.386539
                                                         4.590809       0.360915
                                                        23.194561       0.272788

                          1       4    3px               0.109280       0.062233
                                                         0.155613       0.035668
                                                         0.238409       0.015304
                                                         0.548949      -0.003054
                                                         1.426820       0.021875
                                                         4.590809       0.000000
                                                        23.194561       0.000000
                          1       4    3py               0.109280       0.062233
                                                         0.155613       0.035668
                                                         0.238409       0.015304
                                                         0.548949      -0.003054
                                                         1.426820       0.021875
                                                         4.590809       0.000000
                                                        23.194561       0.000000
                          1       4    3pz               0.109280       0.062233
                                                         0.155613       0.035668
                                                         0.238409       0.015304
                                                         0.548949      -0.003054
                                                         1.426820       0.021875
                                                         4.590809       0.000000
                                                        23.194561       0.000000

                          1       5    3dx2              0.109280       0.000986
                                                         0.155613       0.002022
                                                         0.238409       0.109458
                                                         0.548949       0.095099
                                                         1.426820       0.028232
                                                         4.590809       0.000000
                                                        23.194561       0.000000
                          1       5    3dxy              0.109280       0.001708
                                                         0.155613       0.003503
                                                         0.238409       0.189586
                                                         0.548949       0.164717
                                                         1.426820       0.048900
                                                         4.590809       0.000000
                                                        23.194561       0.000000
                          1       5    3dxz              0.109280       0.001708
                                                         0.155613       0.003503
                                                         0.238409       0.189586
                                                         0.548949       0.164717
                                                         1.426820       0.048900
                                                         4.590809       0.000000
                                                        23.194561       0.000000
                          1       5    3dy2              0.109280       0.000986
                                                         0.155613       0.002022
                                                         0.238409       0.109458
                                                         0.548949       0.095099
                                                         1.426820       0.028232
                                                         4.590809       0.000000
                                                        23.194561       0.000000
                          1       5    3dyz              0.109280       0.001708
                                                         0.155613       0.003503
                                                         0.238409       0.189586
                                                         0.548949       0.164717
                                                         1.426820       0.048900
                                                         4.590809       0.000000
                                                        23.194561       0.000000
                          1       5    3dz2              0.109280       0.000986
                                                         0.155613       0.002022
                                                         0.238409       0.109458
                                                         0.548949       0.095099
                                                         1.426820       0.028232
                                                         4.590809       0.000000
                                                        23.194561       0.000000

                          2       1    1s              506.011837       0.696781
                                                        92.776716       1.051665
                                                        25.955582       1.381280
                                                         8.916443       1.362748
                                                         3.462516       0.753460
                                                         1.426055       0.121219

     RI Auxiliary Basis Set             RI_aug-SZV-MOLOPT-ae_N_RI_032_s_p_d_f_g_

       Number of orbital shell sets:                                          12
       Number of orbital shells:                                              12
       Number of primitive Cartesian functions:                               12
       Number of Cartesian basis functions:                                   37
       Number of spherical basis functions:                                   32
       Norm type:                                                              2

       Normalised Cartesian orbitals:

                        Set   Shell   Orbital            Exponent    Coefficient

                          1       1    1s                0.209619       0.220792

                          2       1    7px               0.279173       0.289256
                          2       1    7py               0.279173       0.289256
                          2       1    7pz               0.279173       0.289256

                          3       1   10dx2              0.438607       0.389083
                          3       1   10dxy              0.438607       0.673912
                          3       1   10dxz              0.438607       0.673912
                          3       1   10dy2              0.438607       0.389083
                          3       1   10dyz              0.438607       0.673912
                          3       1   10dz2              0.438607       0.389083

                          4       1   12fx3              0.550449       0.384210
                          4       1   12fx2y             0.550449       0.859120
                          4       1   12fx2z             0.550449       0.859120
                          4       1   12fxy2             0.550449       0.859120
                          4       1   12fxyz             0.550449       1.488039
                          4       1   12fxz2             0.550449       0.859120
                          4       1   12fy3              0.550449       0.384210
                          4       1   12fy2z             0.550449       0.859120
                          4       1   12fyz2             0.550449       0.859120
                          4       1   12fz3              0.550449       0.384210

                          5       1    2s                0.618189       0.496879

                          6       1    8px               0.759703       1.010986
                          6       1    8py               0.759703       1.010986
                          6       1    8pz               0.759703       1.010986

                          7       1    3s                1.823121       1.118206

                          8       1   11dx2              2.272834       6.924734
                          8       1   11dxy              2.272834      11.993991
                          8       1   11dxz              2.272834      11.993991
                          8       1   11dy2              2.272834       6.924734
                          8       1   11dyz              2.272834      11.993991
                          8       1   11dz2              2.272834       6.924734

                          9       1    4s                5.376710       2.516504

                         10       1    9px               8.010416      19.209185
                         10       1    9py               8.010416      19.209185
                         10       1    9pz               8.010416      19.209185

                         11       1    5s               15.856825       5.663335

                         12       1    6s               46.764327      12.745184

       Atomic covalent radius [Angstrom]:                                  0.820

       Atomic van der Waals radius [Angstrom]:                             1.920

     The atoms of this atomic kind are PAW atoms (GAPW):
       Hard Gaussian function radius:                                      1.512
       Rho0 radius:                                                        1.512
       Maximum GTO radius used for PAW projector construction:            24.566

     GAPW Soft Basis Set                                  aug-SZV-MOLOPT-ae_soft

       Number of orbital shell sets:                                           2
       Number of orbital shells:                                               6
       Number of primitive Cartesian functions:                                7
       Number of Cartesian basis functions:                                   15
       Number of spherical basis functions:                                   14
       Norm type:                                                              2

       Normalised Cartesian orbitals:

                        Set   Shell   Orbital            Exponent    Coefficient

                          1       1    1s                0.109280       0.032606
                                                         0.155613       0.000000
                                                         0.238409       0.144712
                                                         0.548949       0.113742
                                                         1.426820      -0.031435

                          1       2    2s                0.109280      -0.049098
                                                         0.155613      -0.119813
                                                         0.238409      -0.025283
                                                         0.548949       0.056653
                                                         1.426820       0.132404

                          1       3    2px               0.109280       0.009109
                                                         0.155613       0.000000
                                                         0.238409       0.101125
                                                         0.548949       0.281559
                                                         1.426820       0.386539
                          1       3    2py               0.109280       0.009109
                                                         0.155613       0.000000
                                                         0.238409       0.101125
                                                         0.548949       0.281559
                                                         1.426820       0.386539
                          1       3    2pz               0.109280       0.009109
                                                         0.155613       0.000000
                                                         0.238409       0.101125
                                                         0.548949       0.281559
                                                         1.426820       0.386539

                          1       4    3px               0.109280       0.062233
                                                         0.155613       0.035668
                                                         0.238409       0.015304
                                                         0.548949      -0.003054
                                                         1.426820       0.021875
                          1       4    3py               0.109280       0.062233
                                                         0.155613       0.035668
                                                         0.238409       0.015304
                                                         0.548949      -0.003054
                                                         1.426820       0.021875
                          1       4    3pz               0.109280       0.062233
                                                         0.155613       0.035668
                                                         0.238409       0.015304
                                                         0.548949      -0.003054
                                                         1.426820       0.021875

                          1       5    3dx2              0.109280       0.000986
                                                         0.155613       0.002022
                                                         0.238409       0.109458
                                                         0.548949       0.095099
                                                         1.426820       0.028232
                          1       5    3dxy              0.109280       0.001708
                                                         0.155613       0.003503
                                                         0.238409       0.189586
                                                         0.548949       0.164717
                                                         1.426820       0.048900
                          1       5    3dxz              0.109280       0.001708
                                                         0.155613       0.003503
                                                         0.238409       0.189586
                                                         0.548949       0.164717
                                                         1.426820       0.048900
                          1       5    3dy2              0.109280       0.000986
                                                         0.155613       0.002022
                                                         0.238409       0.109458
                                                         0.548949       0.095099
                                                         1.426820       0.028232
                          1       5    3dyz              0.109280       0.001708
                                                         0.155613       0.003503
                                                         0.238409       0.189586
                                                         0.548949       0.164717
                                                         1.426820       0.048900
                          1       5    3dz2              0.109280       0.000986
                                                         0.155613       0.002022
                                                         0.238409       0.109458
                                                         0.548949       0.095099
                                                         1.426820       0.028232

                          2       1    1s                3.462516       0.753460
                                                         1.426055       0.121219

     AE Potential information for                                            ALL

       Description:                                       All-electron potential
                                          Krack, Parrinello, PCCP 2, 2105 (2000)

       Gaussian exponent of the core charge distribution:               2.655410
       Electronic configuration (s p d ...):                           4   1   0

  2. Atomic kind: N                                     Number of atoms:       1

     Orbital Basis Set                                      aug-SZV-MOLOPT-ae-SR

       Number of orbital shell sets:                                           2
       Number of orbital shells:                                               6
       Number of primitive Cartesian functions:                                7
       Number of Cartesian basis functions:                                   15
       Number of spherical basis functions:                                   14
       Norm type:                                                              2

       Normalised Cartesian orbitals:

                        Set   Shell   Orbital            Exponent    Coefficient

                          1       1    1s                0.112012       0.000000
                                                         0.285714       0.194997
                                                         0.878497       0.258372
                                                         3.780456      -0.193164

                          1       2    2s                0.112012       0.083551
                                                         0.285714      -0.189186
                                                         0.878497      -0.469875
                                                         3.780456      -0.002085

                          1       3    2px               0.112012       0.000000
                                                         0.285714       0.116706
                                                         0.878497       0.736704
                                                         3.780456       1.171553
                          1       3    2py               0.112012       0.000000
                                                         0.285714       0.116706
                                                         0.878497       0.736704
                                                         3.780456       1.171553
                          1       3    2pz               0.112012       0.000000
                                                         0.285714       0.116706
                                                         0.878497       0.736704
                                                         3.780456       1.171553

                          1       4    3px               0.112012       0.141957
                                                         0.285714      -0.286713
                                                         0.878497       0.074784
                                                         3.780456       0.008085
                          1       4    3py               0.112012       0.141957
                                                         0.285714      -0.286713
                                                         0.878497       0.074784
                                                         3.780456       0.008085
                          1       4    3pz               0.112012       0.141957
                                                         0.285714      -0.286713
                                                         0.878497       0.074784
                                                         3.780456       0.008085

                          1       5    3dx2              0.112012      -0.000364
                                                         0.285714       0.186009
                                                         0.878497      -0.044751
                                                         3.780456       1.815169
                          1       5    3dxy              0.112012      -0.000630
                                                         0.285714       0.322177
                                                         0.878497      -0.077512
                                                         3.780456       3.143965
                          1       5    3dxz              0.112012      -0.000630
                                                         0.285714       0.322177
                                                         0.878497      -0.077512
                                                         3.780456       3.143965
                          1       5    3dy2              0.112012      -0.000364
                                                         0.285714       0.186009
                                                         0.878497      -0.044751
                                                         3.780456       1.815169
                          1       5    3dyz              0.112012      -0.000630
                                                         0.285714       0.322177
                                                         0.878497      -0.077512
                                                         3.780456       3.143965
                          1       5    3dz2              0.112012      -0.000364
                                                         0.285714       0.186009
                                                         0.878497      -0.044751
                                                         3.780456       1.815169

                          2       1    1s               99.106169       3.454881
                                                        18.052312       3.341410
                                                         4.885660       1.041372

     RI Auxiliary Basis Set             RI_aug-SZV-MOLOPT-ae-SR_N_RI_036_s_p_d_f

       Number of orbital shell sets:                                          12
       Number of orbital shells:                                              12
       Number of primitive Cartesian functions:                               12
       Number of Cartesian basis functions:                                   42
       Number of spherical basis functions:                                   36
       Norm type:                                                              2

       Normalised Cartesian orbitals:

                        Set   Shell   Orbital            Exponent    Coefficient

                          1       1    1s                0.362114       0.332693

                          2       1    6px               0.499696       0.598857
                          2       1    6py               0.499696       0.598857
                          2       1    6pz               0.499696       0.598857

                          3       1    9dx2              0.588659       0.651135
                          3       1    9dxy              0.588659       1.127800
                          3       1    9dxz              0.588659       1.127800
                          3       1    9dy2              0.588659       0.651135
                          3       1    9dyz              0.588659       1.127800
                          3       1    9dz2              0.588659       0.651135

                          4       1    2s                0.631634       0.504963

                          5       1   12fx3              0.736605       0.740002
                          5       1   12fx2y             0.736605       1.654695
                          5       1   12fx2z             0.736605       1.654695
                          5       1   12fxy2             0.736605       1.654695
                          5       1   12fxyz             0.736605       2.866016
                          5       1   12fxz2             0.736605       1.654695
                          5       1   12fy3              0.736605       0.740002
                          5       1   12fy2z             0.736605       1.654695
                          5       1   12fyz2             0.736605       1.654695
                          5       1   12fz3              0.736605       0.740002

                          6       1    7px               0.883396       1.220771
                          6       1    7py               0.883396       1.220771
                          6       1    7pz               0.883396       1.220771

                          7       1   10dx2              1.153946       2.114628
                          7       1   10dxy              1.153946       3.662643
                          7       1   10dxz              1.153946       3.662643
                          7       1   10dy2              1.153946       2.114628
                          7       1   10dyz              1.153946       3.662643
                          7       1   10dz2              1.153946       2.114628

                          8       1    3s                2.978947       1.616059

                          9       1    8px               4.407746       9.103549
                          9       1    8py               4.407746       9.103549
                          9       1    8pz               4.407746       9.103549

                         10       1   11dx2              5.691883      34.522914
                         10       1   11dxy              5.691883      59.795442
                         10       1   11dxz              5.691883      59.795442
                         10       1   11dy2              5.691883      34.522914
                         10       1   11dyz              5.691883      59.795442
                         10       1   11dz2              5.691883      34.522914

                         11       1    4s               18.342052       6.316784

                         12       1    5s              106.308958      23.595951

       Atomic covalent radius [Angstrom]:                                  0.750

       Atomic van der Waals radius [Angstrom]:                             1.550

     The atoms of this atomic kind are PAW atoms (GAPW):
       Hard Gaussian function radius:                                      1.512
       Rho0 radius:                                                        1.512
       Maximum GTO radius used for PAW projector construction:            24.566

     GAPW Soft Basis Set                               aug-SZV-MOLOPT-ae-SR_soft

       Number of orbital shell sets:                                           2
       Number of orbital shells:                                               6
       Number of primitive Cartesian functions:                                4
       Number of Cartesian basis functions:                                   15
       Number of spherical basis functions:                                   14
       Norm type:                                                              2

       Normalised Cartesian orbitals:

                        Set   Shell   Orbital            Exponent    Coefficient

                          1       1    1s                0.112012       0.000000
                                                         0.285714       0.194997
                                                         0.878497       0.258372
                                                         3.780456      -0.193164

                          1       2    2s                0.112012       0.083551
                                                         0.285714      -0.189186
                                                         0.878497      -0.469875
                                                         3.780456      -0.002085

                          1       3    2px               0.112012       0.000000
                                                         0.285714       0.116706
                                                         0.878497       0.736704
                                                         3.780456       1.171553
                          1       3    2py               0.112012       0.000000
                                                         0.285714       0.116706
                                                         0.878497       0.736704
                                                         3.780456       1.171553
                          1       3    2pz               0.112012       0.000000
                                                         0.285714       0.116706
                                                         0.878497       0.736704
                                                         3.780456       1.171553

                          1       4    3px               0.112012       0.141957
                                                         0.285714      -0.286713
                                                         0.878497       0.074784
                                                         3.780456       0.008085
                          1       4    3py               0.112012       0.141957
                                                         0.285714      -0.286713
                                                         0.878497       0.074784
                                                         3.780456       0.008085
                          1       4    3pz               0.112012       0.141957
                                                         0.285714      -0.286713
                                                         0.878497       0.074784
                                                         3.780456       0.008085

                          1       5    3dx2              0.112012      -0.000364
                                                         0.285714       0.186009
                                                         0.878497      -0.044751
                                                         3.780456       1.815169
                          1       5    3dxy              0.112012      -0.000630
                                                         0.285714       0.322177
                                                         0.878497      -0.077512
                                                         3.780456       3.143965
                          1       5    3dxz              0.112012      -0.000630
                                                         0.285714       0.322177
                                                         0.878497      -0.077512
                                                         3.780456       3.143965
                          1       5    3dy2              0.112012      -0.000364
                                                         0.285714       0.186009
                                                         0.878497      -0.044751
                                                         3.780456       1.815169
                          1       5    3dyz              0.112012      -0.000630
                                                         0.285714       0.322177
                                                         0.878497      -0.077512
                                                         3.780456       3.143965
                          1       5    3dz2              0.112012      -0.000364
                                                         0.285714       0.186009
                                                         0.878497      -0.044751
                                                         3.780456       1.815169

                          2       1    1s         

     AE Potential information for                                            ALL

       Description:                                       All-electron potential
                                          Krack, Parrinello, PCCP 2, 2105 (2000)

       Gaussian exponent of the core charge distribution:               5.979100
       Electronic configuration (s p d ...):                           4   3   0


 MOLECULE KIND INFORMATION


 All atoms are their own molecule, skipping detailed information


 TOTAL NUMBERS AND MAXIMUM NUMBERS

  Total number of            - Atomic kinds:                                   2
                             - Atoms:                                          2
                             - Shell sets:                                     4
                             - Shells:                                        12
                             - Primitive Cartesian functions:                 20
                             - Cartesian basis functions:                     30
                             - Spherical basis functions:                     28

  Maximum angular momentum of the orbital basis functions:                     2


 MODULE QUICKSTEP: ATOMIC COORDINATES IN ANGSTROM

   Atom Kind Element         X             Y             Z       Z(eff)     Mass
      1    1 B     5     14.334900     15.000000     15.000000   5.0000  10.8110
      2    2 N     7     15.665100     15.000000     15.000000   7.0000  14.0067



 SCF PARAMETERS         Density guess:                                    ATOMIC
                        --------------------------------------------------------
                        max_scf:                                             500
                        max_scf_history:                                       0
                        max_diis:                                              4
                        --------------------------------------------------------
                        eps_scf:                                        1.00E-06
                        eps_scf_history:                                0.00E+00
                        eps_diis:                                       1.00E-01
                        eps_eigval:                                     1.00E-05
                        --------------------------------------------------------
                        level_shift [a.u.]:                             0.000000
                        added MOs                                        22    0
                        --------------------------------------------------------
                        Mixing method:                            BROYDEN_MIXING
                                                charge density mixing in g-space
                        --------------------------------------------------------
                        No outer SCF

 PW_GRID| Information for grid number                                          1
 PW_GRID| Grid distributed over                                    24 processors
 PW_GRID| Real space group dimensions                                    24    1
 PW_GRID| the grid is blocked:                                                NO
 PW_GRID| Cutoff [a.u.]                                                    250.0
 PW_GRID| spherical cutoff:                                                   NO
 PW_GRID|   Bounds   1           -202     202                Points:         405
 PW_GRID|   Bounds   2           -202     202                Points:         405
 PW_GRID|   Bounds   3           -202     202                Points:         405
 PW_GRID| Volume element (a.u.^3)  0.2743E-02     Volume (a.u.^3)    182205.0337
 PW_GRID| Grid span                                                    FULLSPACE
 PW_GRID|   Distribution                         Average         Max         Min
 PW_GRID|   G-Vectors                          2767921.9     2768175     2767770
 PW_GRID|   G-Rays                                6834.4        6835        6834
 PW_GRID|   Real Space Points                  2767921.9     2788425     2624400

 PW_GRID| Information for grid number                                          2
 PW_GRID| Number of the reference grid                                         1
 PW_GRID| Grid distributed over                                    24 processors
 PW_GRID| Real space group dimensions                                    24    1
 PW_GRID| the grid is blocked:                                                NO
 PW_GRID| Cutoff [a.u.]                                                     83.3
 PW_GRID| spherical cutoff:                                                   NO
 PW_GRID|   Bounds   1           -120     119                Points:         240
 PW_GRID|   Bounds   2           -120     119                Points:         240
 PW_GRID|   Bounds   3           -120     119                Points:         240
 PW_GRID| Volume element (a.u.^3)  0.1318E-01     Volume (a.u.^3)    182205.0337
 PW_GRID| Grid span                                                    FULLSPACE
 PW_GRID|   Distribution                         Average         Max         Min
 PW_GRID|   G-Vectors                           576000.0      576240      575760
 PW_GRID|   G-Rays                                2400.0        2401        2399
 PW_GRID|   Real Space Points                   576000.0      576000      576000

 PW_GRID| Information for grid number                                          3
 PW_GRID| Number of the reference grid                                         1
 PW_GRID| Grid distributed over                                    24 processors
 PW_GRID| Real space group dimensions                                    24    1
 PW_GRID| the grid is blocked:                                                NO
 PW_GRID| Cutoff [a.u.]                                                     27.8
 PW_GRID| spherical cutoff:                                                   NO
 PW_GRID|   Bounds   1            -67      67                Points:         135
 PW_GRID|   Bounds   2            -67      67                Points:         135
 PW_GRID|   Bounds   3            -67      67                Points:         135
 PW_GRID| Volume element (a.u.^3)  0.7406E-01     Volume (a.u.^3)    182205.0337
 PW_GRID| Grid span                                                    FULLSPACE
 PW_GRID|   Distribution                         Average         Max         Min
 PW_GRID|   G-Vectors                           102515.6      102735      102330
 PW_GRID|   G-Rays                                 759.4         761         758
 PW_GRID|   Real Space Points                   102515.6      109350       91125

 PW_GRID| Information for grid number                                          4
 PW_GRID| Number of the reference grid                                         1
 PW_GRID| Grid distributed over                                    24 processors
 PW_GRID| Real space group dimensions                                    24    1
 PW_GRID| the grid is blocked:                                                NO
 PW_GRID| Cutoff [a.u.]                                                      9.3
 PW_GRID| spherical cutoff:                                                   NO
 PW_GRID|   Bounds   1            -40      39                Points:          80
 PW_GRID|   Bounds   2            -40      39                Points:          80
 PW_GRID|   Bounds   3            -40      39                Points:          80
 PW_GRID| Volume element (a.u.^3)  0.3559         Volume (a.u.^3)    182205.0337
 PW_GRID| Grid span                                                    FULLSPACE
 PW_GRID|   Distribution                         Average         Max         Min
 PW_GRID|   G-Vectors                            21333.3       21360       21280
 PW_GRID|   G-Rays                                 266.7         267         266
 PW_GRID|   Real Space Points                    21333.3       25600       19200

 POISSON| Solver                                                         WAVELET
 POISSON| Wavelet| Scaling function                                           40
 POISSON| Periodicity                                                       NONE

 RS_GRID| Information for grid number                                          1
 RS_GRID|   Bounds   1           -202     202                Points:         405
 RS_GRID|   Bounds   2           -202     202                Points:         405
 RS_GRID|   Bounds   3           -202     202                Points:         405
 RS_GRID| Real space distribution over                                  4 groups
 RS_GRID| Real space distribution along direction                              2
 RS_GRID| Border size                                                         35
 RS_GRID| Real space distribution over                                  6 groups
 RS_GRID| Real space distribution along direction                              3
 RS_GRID| Border size                                                         35
 RS_GRID|   Distribution                         Average         Max         Min
 RS_GRID|   Planes                                 171.2         172         171
 RS_GRID|   Distribution                         Average         Max         Min
 RS_GRID|   Planes                                 137.5         138         137

 RS_GRID| Information for grid number                                          2
 RS_GRID|   Bounds   1           -120     119                Points:         240
 RS_GRID|   Bounds   2           -120     119                Points:         240
 RS_GRID|   Bounds   3           -120     119                Points:         240
 RS_GRID| Real space distribution over                                  4 groups
 RS_GRID| Real space distribution along direction                              2
 RS_GRID| Border size                                                         37
 RS_GRID| Real space distribution over                                  6 groups
 RS_GRID| Real space distribution along direction                              3
 RS_GRID| Border size                                                         37
 RS_GRID|   Distribution                         Average         Max         Min
 RS_GRID|   Planes                                 134.0         134         134
 RS_GRID|   Distribution                         Average         Max         Min
 RS_GRID|   Planes                                 114.0         114         114

 RS_GRID| Information for grid number                                          3
 RS_GRID|   Bounds   1            -67      67                Points:         135
 RS_GRID|   Bounds   2            -67      67                Points:         135
 RS_GRID|   Bounds   3            -67      67                Points:         135
 RS_GRID| Real space fully replicated
 RS_GRID| Group size                                                           1

 RS_GRID| Information for grid number                                          4
 RS_GRID|   Bounds   1            -40      39                Points:          80
 RS_GRID|   Bounds   2            -40      39                Points:          80
 RS_GRID|   Bounds   3            -40      39                Points:          80
 RS_GRID| Real space fully replicated
 RS_GRID| Group size                                                           1

  HFX_INFO| Replica ID:                                                        1
  HFX_INFO| FRACTION:                                               0.2500000000
  HFX_INFO| Interaction Potential:                                       COULOMB
  HFX_INFO| EPS_SCHWARZ:                                                 1.0E-10
  HFX_INFO| EPS_SCHWARZ_FORCES                                           1.0E-08
  HFX_INFO| EPS_STORAGE_SCALING:                                         1.0E+00
  HFX_INFO| NBINS:                                                            64
  HFX_INFO| BLOCK_SIZE:                                                        1
  HFX_INFO| Number of periodic shells considered:                           NONE
  HFX_INFO| Number of periodic cells considered:                            NONE

 
 RI-RPA| using GPW style
 

 OVERLAP MATRIX CONDITION NUMBER
 1-Norm Condition Number (Estimate)
   CN : |A|*|A^-1|:  4.692E+000 *  1.758E+002   = 8.250E+002  Log(1-CN):  2.9165
 1-Norm and 2-Norm Condition Numbers using Diagonalization
   CN : |A|*|A^-1|:  4.692E+000 *  1.758E+002   = 8.250E+002  Log(1-CN):  2.9165
   CN : max/min ev:  3.171E+000 /  9.612E-003   = 3.299E+002  Log(2-CN):  2.5183

 Number of electrons:                                                         12
 Number of occupied orbitals:                                                  6
 Number of molecular orbitals:                                                28

 Number of orbital functions:                                                 28
 Number of independent orbital functions:                                     28

 Extrapolation method: initial_guess

 Atomic guess: The first density matrix is obtained in terms of atomic orbitals
               and electronic configurations assigned to each atomic kind

 Guess for atomic kind: B

 Electronic structure
    Total number of core electrons                                          0.00
    Total number of valence electrons                                       5.00
    Total number of electrons                                               5.00
    Multiplicity                                                   not specified
    S      2.00  2.00
    P      1.00


 *******************************************************************************
                  Iteration          Convergence                     Energy [au]
 *******************************************************************************
                          1        0.612489E-01                 -24.304439508901
                          2        0.220484E-01                 -24.305945213911
                          3        0.367076E-03                 -24.306247196960
                          4        0.456899E-05                 -24.306247340970
                          5        0.241868E-07                 -24.306247340986

 Energy components [Hartree]           Total Energy ::          -24.306247340986
                                        Band Energy ::          -13.825803348850
                                     Kinetic Energy ::           23.970530113188
                                   Potential Energy ::          -48.276777454174
                                      Virial (-V/T) ::            2.014005415242
                                        Core Energy ::          -32.361048727638
                                          XC Energy ::           -3.546375173816
                                     Coulomb Energy ::           11.601176560468

 Orbital energies  State     L     Occupation   Energy[a.u.]          Energy[eV]

                       1     0          2.000      -6.531739         -177.737651
                       2     0          2.000      -0.324835           -8.839199

                       1     1          1.000      -0.112657           -3.065543


 Total Electron Density at R=0:                                        58.671969

 Guess for atomic kind: N

 Electronic structure
    Total number of core electrons                                          0.00
    Total number of valence electrons                                       7.00
    Total number of electrons                                               7.00
    Multiplicity                                                   not specified
    S      2.00  2.00
    P      3.00


 *******************************************************************************
                  Iteration          Convergence                     Energy [au]
 *******************************************************************************
                          1        0.159909                     -53.340877683251
                          2        0.769146E-01                 -53.353877926770
                          3        0.463278E-03                 -53.358451509292
                          4        0.156014E-03                 -53.358451645833
                          5        0.102251E-04                 -53.358451658533
                          6        0.178265E-08                 -53.358451658590

 Energy components [Hartree]           Total Energy ::          -53.358451658590
                                        Band Energy ::          -29.695765597812
                                     Kinetic Energy ::           52.385975587247
                                   Potential Energy ::         -105.744427245837
                                      Virial (-V/T) ::            2.018563672060
                                        Core Energy ::          -72.851122194822
                                          XC Energy ::           -6.109149652554
                                     Coulomb Energy ::           25.601820188786

 Orbital energies  State     L     Occupation   Energy[a.u.]          Energy[eV]

                       1     0          2.000     -13.845221         -376.747634
                       2     0          2.000      -0.658428          -17.916731

                       1     1          3.000      -0.229489           -6.244716


 Total Electron Density at R=0:                                       126.344533
 Re-scaling the density matrix to get the right number of electrons
                  # Electrons              Trace(P)               Scaling factor
                           12                12.000                        1.000


 SCF WAVEFUNCTION OPTIMIZATION

  Step     Update method      Time    Convergence         Total energy    Change
  ------------------------------------------------------------------------------

  HFX_MEM_INFO| Est. max. program size before HFX [MiB]:                    2156
  HFX_MEM_INFO| Number of cart. primitive ERI's calculated:             82318681
  HFX_MEM_INFO| Number of sph. ERI's calculated:                          230496
  HFX_MEM_INFO| Number of sph. ERI's stored in-core:                      230496
  HFX_MEM_INFO| Number of sph. ERI's stored on disk:                           0
  HFX_MEM_INFO| Number of sph. ERI's calculated on the fly:                    0
  HFX_MEM_INFO| Total memory consumption ERI's RAM [MiB]:                      2
  HFX_MEM_INFO| Whereof max-vals [MiB]:                                        1
  HFX_MEM_INFO| Total compression factor ERI's RAM:                         1.11
  HFX_MEM_INFO| Total memory consumption ERI's disk [MiB]:                     0
  HFX_MEM_INFO| Total compression factor ERI's disk:                        0.00
  HFX_MEM_INFO| Size of density/Fock matrix [MiB]:                             0
  HFX_MEM_INFO| Size of buffers [MiB]:                                         0
  HFX_MEM_INFO| Est. max. program size after HFX  [MiB]:                    2665

     1 NoMix/Diag. 0.10E+00    9.0     0.62081750       -78.7183027578 -7.87E+01
     2 Broy./Diag. 0.10E+00    4.9     0.12543564       -77.7132497953  1.01E+00
     3 Broy./Diag. 0.10E+00    5.1     0.16803160       -77.2120337403  5.01E-01
     4 Broy./Diag. 0.10E+00    5.0     0.27052126       -77.0627557435  1.49E-01
     5 Broy./Diag. 0.10E+00    5.1     0.21705441       -78.0620782735 -9.99E-01
     6 Broy./Diag. 0.10E+00    5.1     0.09635765       -78.4880902337 -4.26E-01
     7 Broy./Diag. 0.10E+00    5.1     0.04297330       -77.9596013756  5.28E-01
     8 Broy./Diag. 0.10E+00    5.3     0.26457324       -77.9850324020 -2.54E-02
     9 Broy./Diag. 0.10E+00    5.4     0.15169357       -78.7280143407 -7.43E-01
    10 Broy./Diag. 0.10E+00    5.4     0.15236741       -79.0230900006 -2.95E-01
    11 Broy./Diag. 0.10E+00    5.3     0.11287268       -79.3277981039 -3.05E-01
    12 Broy./Diag. 0.10E+00    5.3     0.09765676       -79.5147357277 -1.87E-01
    13 Broy./Diag. 0.10E+00    5.5     0.06378521       -79.6662615452 -1.52E-01
    14 Broy./Diag. 0.10E+00    5.5     0.02730613       -79.7225507350 -5.63E-02
    15 Broy./Diag. 0.10E+00    5.5     0.06885717       -79.7736327950 -5.11E-02
    16 Broy./Diag. 0.10E+00    5.5     0.13372707       -79.5618917057  2.12E-01
    17 Broy./Diag. 0.10E+00    5.5     0.14953720       -79.1560222822  4.06E-01
    18 Broy./Diag. 0.10E+00    5.5     0.15265839       -78.8237294273  3.32E-01
    19 Broy./Diag. 0.10E+00    5.5     0.10527529       -78.5805896132  2.43E-01
    20 Broy./Diag. 0.10E+00    5.4     0.06130714       -78.4602013905  1.20E-01
    21 Broy./Diag. 0.10E+00    5.4     0.05782379       -78.3989457459  6.13E-02
    22 Broy./Diag. 0.10E+00    5.5     0.04827045       -78.3095281256  8.94E-02
    23 Broy./Diag. 0.10E+00    5.4     0.02569271       -78.2307569838  7.88E-02
    24 Broy./Diag. 0.10E+00    5.4     0.01622535       -78.1803961794  5.04E-02
    25 Broy./Diag. 0.10E+00    5.5     0.02829494       -78.1351866635  4.52E-02
    26 Broy./Diag. 0.10E+00    5.4     0.02063717       -78.0467854558  8.84E-02
    27 Broy./Diag. 0.10E+00    5.3     0.01517408       -77.9992310563  4.76E-02
    28 Broy./Diag. 0.10E+00    5.4     0.05319294       -78.0543454872 -5.51E-02
    29 Broy./Diag. 0.10E+00    5.3     0.02175367       -78.2105943401 -1.56E-01
    30 Broy./Diag. 0.10E+00    5.4     0.09175302       -78.1874750826  2.31E-02
    31 Broy./Diag. 0.10E+00    5.5     0.05659249       -77.8719094079  3.16E-01
    32 Broy./Diag. 0.10E+00    5.5     0.11736325       -77.8130699349  5.88E-02
    33 Broy./Diag. 0.10E+00    5.5     0.16445160       -78.2385876611 -4.26E-01
    34 Broy./Diag. 0.10E+00    5.5     0.11033109       -78.6767649658 -4.38E-01
    35 Broy./Diag. 0.10E+00    5.5     0.04563681       -78.8581232015 -1.81E-01
    36 Broy./Diag. 0.10E+00    5.6     0.05764290       -78.7031652654  1.55E-01
    37 Broy./Diag. 0.10E+00    5.4     0.04249300       -78.5219613747  1.81E-01
    38 Broy./Diag. 0.10E+00    5.4     0.02185081       -78.4310340003  9.09E-02
    39 Broy./Diag. 0.10E+00    5.4     0.03585239       -78.3890219367  4.20E-02
    40 Broy./Diag. 0.10E+00    5.3     0.02818434       -78.3092022067  7.98E-02
    41 Broy./Diag. 0.10E+00    5.4     0.01069653       -78.2608346678  4.84E-02
    42 Broy./Diag. 0.10E+00    5.4     0.01089568       -78.2587875948  2.05E-03
    43 Broy./Diag. 0.10E+00    5.3     0.00316956       -78.2895393092 -3.08E-02
    44 Broy./Diag. 0.10E+00    5.3     0.00769208       -78.2890804848  4.59E-04
    45 Broy./Diag. 0.10E+00    5.4     0.01856245       -78.2750516797  1.40E-02
    46 Broy./Diag. 0.10E+00    5.3     0.02869099       -78.3321272403 -5.71E-02
    47 Broy./Diag. 0.10E+00    5.6     0.06422102       -78.4177555364 -8.56E-02
    48 Broy./Diag. 0.10E+00    5.5     0.03535193       -78.5604931025 -1.43E-01
    49 Broy./Diag. 0.10E+00    5.6     0.06584646       -78.5688610882 -8.37E-03
    50 Broy./Diag. 0.10E+00    5.5     0.02675149       -78.3759110717  1.93E-01
    51 Broy./Diag. 0.10E+00    5.5     0.01542703       -78.3259372739  5.00E-02
    52 Broy./Diag. 0.10E+00    5.4     0.00384809       -78.3071539444  1.88E-02
    53 Broy./Diag. 0.10E+00    5.5     0.00378566       -78.3094260041 -2.27E-03
    54 Broy./Diag. 0.10E+00    5.5     0.00282938       -78.3085162376  9.10E-04
    55 Broy./Diag. 0.10E+00    5.4     0.00419557       -78.3155556598 -7.04E-03
    56 Broy./Diag. 0.10E+00    5.4     0.01446109       -78.2997251542  1.58E-02
    57 Broy./Diag. 0.10E+00    5.4     0.06350865       -78.3024377511 -2.71E-03
    58 Broy./Diag. 0.10E+00    5.4     0.07809384       -78.4900477830 -1.88E-01
    59 Broy./Diag. 0.10E+00    5.3     0.03762215       -78.6518280552 -1.62E-01
    60 Broy./Diag. 0.10E+00    5.4     0.05786028       -78.6582358991 -6.41E-03
    61 Broy./Diag. 0.10E+00    5.4     0.05010964       -78.4668736476  1.91E-01
    62 Broy./Diag. 0.10E+00    5.3     0.02907694       -78.3602940840  1.07E-01
    63 Broy./Diag. 0.10E+00    5.5     0.02491485       -78.3126875317  4.76E-02
    64 Broy./Diag. 0.10E+00    5.6     0.02759080       -78.2671616656  4.55E-02
    65 Broy./Diag. 0.10E+00    5.6     0.00484199       -78.2181234228  4.90E-02
    66 Broy./Diag. 0.10E+00    5.6     0.00450903       -78.2275452223 -9.42E-03
    67 Broy./Diag. 0.10E+00    5.6     0.01642112       -78.2285145281 -9.69E-04
    68 Broy./Diag. 0.10E+00    5.4     0.01013371       -78.1959454962  3.26E-02
    69 Broy./Diag. 0.10E+00    5.5     0.00730998       -78.2331898684 -3.72E-02
    70 Broy./Diag. 0.10E+00    5.4     0.01421456       -78.2562431662 -2.31E-02
    71 Broy./Diag. 0.10E+00    5.4     0.06334314       -78.3117691270 -5.55E-02
    72 Broy./Diag. 0.10E+00    5.4     0.08122091       -78.4756175106 -1.64E-01
    73 Broy./Diag. 0.10E+00    5.4     0.03216114       -78.6291618991 -1.54E-01
    74 Broy./Diag. 0.10E+00    5.3     0.02760228       -78.6359607231 -6.80E-03
    75 Broy./Diag. 0.10E+00    5.3     0.03525882       -78.5416669240  9.43E-02
    76 Broy./Diag. 0.10E+00    5.3     0.03670239       -78.4517090120  9.00E-02
    77 Broy./Diag. 0.10E+00    5.3     0.02880774       -78.3773911738  7.43E-02
    78 Broy./Diag. 0.10E+00    5.3     0.04427651       -78.3507311364  2.67E-02
    79 Broy./Diag. 0.10E+00    5.4     0.07378768       -78.4974474317 -1.47E-01
    80 Broy./Diag. 0.10E+00    5.4     0.04661111       -78.6649198281 -1.67E-01
    81 Broy./Diag. 0.10E+00    5.5     0.01178795       -78.7329295542 -6.80E-02
    82 Broy./Diag. 0.10E+00    5.5     0.03431678       -78.7294641277  3.47E-03
    83 Broy./Diag. 0.10E+00    5.5     0.03258873       -78.7732617492 -4.38E-02
    84 Broy./Diag. 0.10E+00    5.5     0.05249674       -78.6700094127  1.03E-01
    85 Broy./Diag. 0.10E+00    5.6     0.03465432       -78.5618814585  1.08E-01
    86 Broy./Diag. 0.10E+00    5.4     0.02589563       -78.5126472651  4.92E-02
    87 Broy./Diag. 0.10E+00    5.4     0.02586981       -78.4778333538  3.48E-02
    88 Broy./Diag. 0.10E+00    5.4     0.01643736       -78.4367523030  4.11E-02
    89 Broy./Diag. 0.10E+00    5.4     0.00936101       -78.4195275539  1.72E-02
    90 Broy./Diag. 0.10E+00    5.4     0.01341360       -78.4428371401 -2.33E-02
    91 Broy./Diag. 0.10E+00    5.5     0.01348334       -78.4154224300  2.74E-02
    92 Broy./Diag. 0.10E+00    5.6     0.01023404       -78.3894187651  2.60E-02
    93 Broy./Diag. 0.10E+00    5.5     0.01349103       -78.3714002117  1.80E-02
    94 Broy./Diag. 0.10E+00    5.5     0.01086179       -78.3562772421  1.51E-02
    95 Broy./Diag. 0.10E+00    5.5     0.03250314       -78.4014050489 -4.51E-02
    96 Broy./Diag. 0.10E+00    5.5     0.04328986       -78.4820829650 -8.07E-02
    97 Broy./Diag. 0.10E+00    5.5     0.02975741       -78.5629002103 -8.08E-02
    98 Broy./Diag. 0.10E+00    5.4     0.01131853       -78.5959057083 -3.30E-02
    99 Broy./Diag. 0.10E+00    5.4     0.00989090       -78.5690373076  2.69E-02
   100 Broy./Diag. 0.10E+00    5.4     0.00710690       -78.5415031981  2.75E-02
   101 Broy./Diag. 0.10E+00    5.4     0.00136887       -78.5277221910  1.38E-02
   102 Broy./Diag. 0.10E+00    5.4     0.01778817       -78.5279691400 -2.47E-04
   103 Broy./Diag. 0.10E+00    5.5     0.01321455       -78.4842178831  4.38E-02
   104 Broy./Diag. 0.10E+00    5.4     0.01762689       -78.4562804194  2.79E-02
   105 Broy./Diag. 0.10E+00    5.4     0.01673636       -78.4206620270  3.56E-02
   106 Broy./Diag. 0.10E+00    5.5     0.00710124       -78.3910601636  2.96E-02
   107 Broy./Diag. 0.10E+00    5.6     0.01079364       -78.3832283767  7.83E-03
   108 Broy./Diag. 0.10E+00    5.6     0.01132563       -78.3634259499  1.98E-02
   109 Broy./Diag. 0.10E+00    5.6     0.00952023       -78.3542330406  9.19E-03
   110 Broy./Diag. 0.10E+00    5.4     0.02001941       -78.3903469902 -3.61E-02
   111 Broy./Diag. 0.10E+00    5.4     0.02438940       -78.4430840489 -5.27E-02
   112 Broy./Diag. 0.10E+00    5.4     0.03292055       -78.4935563776 -5.05E-02
   113 Broy./Diag. 0.10E+00    5.5     0.03162079       -78.5567146463 -6.32E-02
   114 Broy./Diag. 0.10E+00    5.3     0.01918309       -78.6103535700 -5.36E-02
   115 Broy./Diag. 0.10E+00    5.4     0.00702792       -78.6322329174 -2.19E-02
   116 Broy./Diag. 0.10E+00    5.4     0.01763910       -78.6106855539  2.15E-02
   117 Broy./Diag. 0.10E+00    5.5     0.01090961       -78.5667188900  4.40E-02
   118 Broy./Diag. 0.10E+00    5.5     0.01732791       -78.5448494979  2.19E-02
   119 Broy./Diag. 0.10E+00    5.4     0.01665034       -78.5090324475  3.58E-02
   120 Broy./Diag. 0.10E+00    5.5     0.01488103       -78.4780396175  3.10E-02
   121 Broy./Diag. 0.10E+00    5.6     0.01054616       -78.4533329836  2.47E-02
   122 Broy./Diag. 0.10E+00    5.6     0.00899499       -78.4381265922  1.52E-02
[...]
   418 Broy./Diag. 0.10E+00    5.4     0.21460164       -79.1792043595  2.90E-01
   419 Broy./Diag. 0.10E+00    5.4     0.07450108       -78.6203525313  5.59E-01
   420 Broy./Diag. 0.10E+00    5.4     0.14244789       -78.8596218789 -2.39E-01
   421 Broy./Diag. 0.10E+00    5.4     0.06413411       -79.1507093612 -2.91E-01
   422 Broy./Diag. 0.10E+00    5.4     0.12695493       -78.9465858194  2.04E-01
   423 Broy./Diag. 0.10E+00    5.4     0.44671627       -78.3983273002  5.48E-01
   424 Broy./Diag. 0.10E+00    5.5     0.30541661       -77.6427348337  7.56E-01
   425 Broy./Diag. 0.10E+00    5.4     0.04606428       -78.5423948067 -9.00E-01
   426 Broy./Diag. 0.10E+00    5.5     0.10820164       -78.4859905871  5.64E-02
   427 Broy./Diag. 0.10E+00    5.3     0.07123489       -78.2940037484  1.92E-01
   428 Broy./Diag. 0.10E+00    5.5     0.07112324       -78.5060826756 -2.12E-01
   429 Broy./Diag. 0.10E+00    5.5     0.02747376       -78.6759803177 -1.70E-01
   430 Broy./Diag. 0.10E+00    5.5     0.03339005       -78.6326868222  4.33E-02
   431 Broy./Diag. 0.10E+00    5.6     0.03764958       -78.5683500330  6.43E-02
   432 Broy./Diag. 0.10E+00    5.5     0.04001297       -78.5061875804  6.22E-02
   433 Broy./Diag. 0.10E+00    5.5     0.04470951       -78.5993550750 -9.32E-02
   434 Broy./Diag. 0.10E+00    5.4     0.05485823       -78.6338416833 -3.45E-02
   435 Broy./Diag. 0.10E+00    5.4     0.05002417       -78.5800322806  5.38E-02
   436 Broy./Diag. 0.10E+00    5.4     0.04641656       -78.6034689323 -2.34E-02
   437 Broy./Diag. 0.10E+00    5.3     0.05667630       -78.7074703698 -1.04E-01
   438 Broy./Diag. 0.10E+00    5.4     0.05062913       -78.7926946576 -8.52E-02
   439 Broy./Diag. 0.10E+00    5.3     0.05394314       -78.7728468505  1.98E-02
   440 Broy./Diag. 0.10E+00    5.4     0.07958445       -78.8449691472 -7.21E-02
   441 Broy./Diag. 0.10E+00    5.4     0.07897784       -78.9799201151 -1.35E-01
   442 Broy./Diag. 0.10E+00    5.4     0.07340749       -79.0254640103 -4.55E-02
   443 Broy./Diag. 0.10E+00    5.5     0.06928861       -79.0248156353  6.48E-04
   444 Broy./Diag. 0.10E+00    5.6     0.06459873       -79.0146456783  1.02E-02
   445 Broy./Diag. 0.10E+00    5.5     0.04902788       -79.0546723068 -4.00E-02
   446 Broy./Diag. 0.10E+00    5.5     0.04286459       -79.1271148185 -7.24E-02
   447 Broy./Diag. 0.10E+00    5.5     0.08145536       -79.1397047224 -1.26E-02
   448 Broy./Diag. 0.10E+00    5.4     0.06361437       -79.0013525198  1.38E-01
   449 Broy./Diag. 0.10E+00    5.4     0.06452623       -78.9442322336  5.71E-02
   450 Broy./Diag. 0.10E+00    5.4     0.10267493       -78.7671483642  1.77E-01
   451 Broy./Diag. 0.10E+00    5.4     0.06966315       -78.4563520558  3.11E-01
   452 Broy./Diag. 0.10E+00    5.4     0.10257559       -78.5890830325 -1.33E-01
   453 Broy./Diag. 0.10E+00    5.4     0.06389426       -78.9608302024 -3.72E-01
   454 Broy./Diag. 0.10E+00    5.4     0.05988366       -78.9517016875  9.13E-03
   455 Broy./Diag. 0.10E+00    5.4     0.11776024       -78.6855010523  2.66E-01
   456 Broy./Diag. 0.10E+00    5.4     0.07395598       -78.5154318314  1.70E-01
   457 Broy./Diag. 0.10E+00    5.5     0.07518380       -78.5784093893 -6.30E-02
   458 Broy./Diag. 0.10E+00    5.5     0.30661763       -78.5868198628 -8.41E-03
   459 Broy./Diag. 0.10E+00    5.5     0.18027483       -78.0652253233  5.22E-01
   460 Broy./Diag. 0.10E+00    5.5     0.18385878       -77.9752779028  8.99E-02
   461 Broy./Diag. 0.10E+00    5.5     0.19069567       -78.5116656636 -5.36E-01
   462 Broy./Diag. 0.10E+00    5.5     0.10401557       -78.9328816910 -4.21E-01
   463 Broy./Diag. 0.10E+00    5.4     0.13774791       -78.6478056369  2.85E-01
   464 Broy./Diag. 0.10E+00    5.5     0.03469834       -78.9781372096 -3.30E-01
   465 Broy./Diag. 0.10E+00    5.6     0.02845535       -78.8507560962  1.27E-01
   466 Broy./Diag. 0.10E+00    5.4     0.14919740       -78.6703006069  1.80E-01
   467 Broy./Diag. 0.10E+00    5.4     0.05728627       -78.2941003390  3.76E-01
   468 Broy./Diag. 0.10E+00    5.4     0.18625315       -78.4768468525 -1.83E-01
   469 Broy./Diag. 0.10E+00    5.3     0.14612760       -78.9973666699 -5.21E-01
   470 Broy./Diag. 0.10E+00    5.3     0.07757640       -79.3330070086 -3.36E-01
   471 Broy./Diag. 0.10E+00    5.4     0.16863882       -79.4828355416 -1.50E-01
   472 Broy./Diag. 0.10E+00    5.4     0.12500804       -79.9746667259 -4.92E-01
   473 Broy./Diag. 0.10E+00    5.4     0.09015741       -80.1770181201 -2.02E-01
   474 Broy./Diag. 0.10E+00    5.4     0.05715422       -80.3417583301 -1.65E-01
   475 Broy./Diag. 0.10E+00    5.6     0.10420484       -80.4877170806 -1.46E-01
   476 Broy./Diag. 0.10E+00    5.6     0.02970560       -80.6871193651 -1.99E-01
   477 Broy./Diag. 0.10E+00    5.5     0.01891823       -80.6946938227 -7.57E-03
   478 Broy./Diag. 0.10E+00    5.5     0.36028611       -80.3609633783  3.34E-01
   479 Broy./Diag. 0.10E+00    5.5     0.28880270       -79.5453246214  8.16E-01
   480 Broy./Diag. 0.10E+00    5.4     0.41253756       -78.7855110289  7.60E-01
   481 Broy./Diag. 0.10E+00    5.4     0.09582252       -78.0763335614  7.09E-01
   482 Broy./Diag. 0.10E+00    5.4     0.05238499       -78.1818945794 -1.06E-01
   483 Broy./Diag. 0.10E+00    5.4     0.13431323       -78.3074847617 -1.26E-01
   484 Broy./Diag. 0.10E+00    5.3     0.07930179       -78.6657165180 -3.58E-01
   485 Broy./Diag. 0.10E+00    5.3     0.07692933       -78.8089166631 -1.43E-01
   486 Broy./Diag. 0.10E+00    5.3     0.06900414       -78.9486563890 -1.40E-01
   487 Broy./Diag. 0.10E+00    5.3     0.04961132       -79.0720269187 -1.23E-01
   488 Broy./Diag. 0.10E+00    5.4     0.04824846       -79.1563418968 -8.43E-02
   489 Broy./Diag. 0.10E+00    5.6     0.05438217       -79.2621085018 -1.06E-01
   490 Broy./Diag. 0.10E+00    5.5     0.04263140       -79.3815768187 -1.19E-01
   491 Broy./Diag. 0.10E+00    5.5     0.02650525       -79.4547569502 -7.32E-02
   492 Broy./Diag. 0.10E+00    5.5     0.04058357       -79.4729370403 -1.82E-02
   493 Broy./Diag. 0.10E+00    5.5     0.03651882       -79.5055266126 -3.26E-02
   494 Broy./Diag. 0.10E+00    5.5     0.06146898       -79.4506070605  5.49E-02
   495 Broy./Diag. 0.10E+00    5.4     0.08823094       -79.3735738482  7.70E-02
   496 Broy./Diag. 0.10E+00    5.4     0.13181775       -79.3055267943  6.80E-02
   497 Broy./Diag. 0.10E+00    5.4     0.15782739       -79.1521685106  1.53E-01
   498 Broy./Diag. 0.10E+00    5.5     0.15245757       -78.9354669821  2.17E-01
   499 Broy./Diag. 0.10E+00    5.4     0.12394355       -78.7252685395  2.10E-01
   500 Broy./Diag. 0.10E+00    5.3     0.26112734       -78.6269402530  9.83E-02

  Leaving inner SCF loop after reaching   500 steps.


  Electronic density on regular grids:         -8.6830339187        3.3169660813
  Core density on regular grids:               12.0000000000        0.0000000000
  Hard and soft densities (Lebedev):          -21.7231792242      -18.3987100982
  Total Rho_soft + Rho1_hard - Rho1_soft      -12.0075030448
  Total charge density (r-space):              -0.0075030448
  Total Rho_soft + Rho0_soft (g-space):        -0.0075031275

  Overlap energy of the core charge distribution:               0.00001993455823
  Self energy of the core charge distribution:                -64.05191455199152
  Core Hamiltonian energy:                                    -14.15030635284051
  Hartree energy:                                              17.19007327280750
  Exchange-correlation energy:                                 -2.90790590547210
  Hartree-Fock Exchange energy:                                -2.55360770965241

  GAPW| Exc from hard and soft atomic rho1:                    -5.08359754908986
  GAPW| local Eh = 1 center integrals:                         -7.06970139129491

  Total energy:                                               -78.62694025297559

 *******************************************************************************
 *   ___                                                                       *
 *  /   \                                                                      *
 * [ABORT]                                                                     *
 *  \___/     SCF run NOT converged. To continue the calculation regardless,   *
 *    |             please set the keyword IGNORE_CONVERGENCE_FAILURE.         *
 *  O/|                                                                        *
 * /| |                                                                        *
 * / \                                                            qs_scf.F:611 *
 *******************************************************************************


 ===== Routine Calling Stack ===== 

            3 scf_env_do_scf
            2 qs_energies
            1 CP2K

 *******************************************************************************
 *   ___                                                                       *
 *  /   \                                                                      *
 * [ABORT]                                                                     *
 *  \___/     SCF run NOT converged. To continue the calculation regardless,   *
 *    |             please set the keyword IGNORE_CONVERGENCE_FAILURE.         *
 *  O/|                                                                        *
 * /| |                                                                        *
 * / \                                                            qs_scf.F:611 *
 *******************************************************************************


 ===== Routine Calling Stack ===== 

            3 scf_env_do_scf
            2 qs_energies
            1 CP2K

 *******************************************************************************
 *   ___                                                                       *
 *  /   \                                                                      *
 * [ABORT]                                                                     *
 *  \___/     SCF run NOT converged. To continue the calculation regardless,   *
 *    |             please set the keyword IGNORE_CONVERGENCE_FAILURE.         *
 *  O/|                                                                        *
 * /| |                                                                        *
 * / \                                                            qs_scf.F:611 *
 *******************************************************************************


 ===== Routine Calling Stack ===== 

            3 scf_env_do_scf
            2 qs_energies
            1 CP2K

 *******************************************************************************
 *   ___                                                                       *
 *  /   \                                                                      *
 * [ABORT]                                                                     *
 *  \___/     SCF run NOT converged. To continue the calculation regardless,   *
 *    |             please set the keyword IGNORE_CONVERGENCE_FAILURE.         *
 *  O/|                                                                        *
 * /| |                                                                        *
 * / \                                                            qs_scf.F:611 *
 *******************************************************************************


 ===== Routine Calling Stack ===== 

            3 scf_env_do_scf
            2 qs_energies
            1 CP2K

 *******************************************************************************
 *   ___                                                                       *
 *  /   \                                                                      *
 * [ABORT]                                                                     *
 *  \___/     SCF run NOT converged. To continue the calculation regardless,   *
 *    |             please set the keyword IGNORE_CONVERGENCE_FAILURE.         *
 *  O/|                                                                        *
 * /| |                                                                        *
 * / \                                                            qs_scf.F:611 *
 *******************************************************************************


 ===== Routine Calling Stack ===== 

            3 scf_env_do_scf
            2 qs_energies
            1 CP2K

 *******************************************************************************
 *   ___                                                                       *
 *  /   \                                                                      *
 * [ABORT]                                                                     *
 *  \___/     SCF run NOT converged. To continue the calculation regardless,   *
 *    |             please set the keyword IGNORE_CONVERGENCE_FAILURE.         *
 *  O/|                                                                        *
 * /| |                                                                        *
 * / \                                                            qs_scf.F:611 *
 *******************************************************************************


 ===== Routine Calling Stack ===== 

            3 scf_env_do_scf
            2 qs_energies
            1 CP2K

 *******************************************************************************
 *   ___                                                                       *
 *  /   \                                                                      *
 * [ABORT]                                                                     *
 *  \___/     SCF run NOT converged. To continue the calculation regardless,   *
 *    |             please set the keyword IGNORE_CONVERGENCE_FAILURE.         *
 *  O/|                                                                        *
 * /| |                                                                        *
 * / \                                                            qs_scf.F:611 *
 *******************************************************************************


 ===== Routine Calling Stack ===== 

            3 scf_env_do_scf
            2 qs_energies
            1 CP2K

 *******************************************************************************
 *   ___                                                                       *
 *  /   \                                                                      *
 * [ABORT]                                                                     *
 *  \___/     SCF run NOT converged. To continue the calculation regardless,   *
 *    |             please set the keyword IGNORE_CONVERGENCE_FAILURE.         *
 *  O/|                                                                        *
 * /| |                                                                        *
 * / \                                                            qs_scf.F:611 *
 *******************************************************************************


 ===== Routine Calling Stack ===== 

            3 scf_env_do_scf
            2 qs_energies
            1 CP2K

 *******************************************************************************
 *   ___                                                                       *
 *  /   \                                                                      *
 * [ABORT]                                                                     *
 *  \___/     SCF run NOT converged. To continue the calculation regardless,   *
 *    |             please set the keyword IGNORE_CONVERGENCE_FAILURE.         *
 *  O/|                                                                        *
 * /| |                                                                        *
 * / \                                                            qs_scf.F:611 *
 *******************************************************************************


 ===== Routine Calling Stack ===== 

            3 scf_env_do_scf
            2 qs_energies
            1 CP2K

 *******************************************************************************
 *   ___                                                                       *
 *  /   \                                                                      *
 * [ABORT]                                                                     *
 *  \___/     SCF run NOT converged. To continue the calculation regardless,   *
 *    |             please set the keyword IGNORE_CONVERGENCE_FAILURE.         *
 *  O/|                                                                        *
 * /| |                                                                        *
 * / \                                                            qs_scf.F:611 *
 *******************************************************************************


 ===== Routine Calling Stack ===== 

            3 scf_env_do_scf
            2 qs_energies
            1 CP2K

 *******************************************************************************
 *   ___                                                                       *
 *  /   \                                                                      *
 * [ABORT]                                                                     *
 *  \___/     SCF run NOT converged. To continue the calculation regardless,   *
 *    |             please set the keyword IGNORE_CONVERGENCE_FAILURE.         *
 *  O/|                                                                        *
 * /| |                                                                        *
 * / \                                                            qs_scf.F:611 *
 *******************************************************************************


 ===== Routine Calling Stack ===== 

            3 scf_env_do_scf
            2 qs_energies
            1 CP2K

 *******************************************************************************
 *   ___                                                                       *
 *  /   \                                                                      *
 * [ABORT]                                                                     *
 *  \___/     SCF run NOT converged. To continue the calculation regardless,   *
 *    |             please set the keyword IGNORE_CONVERGENCE_FAILURE.         *
 *  O/|                                                                        *
 * /| |                                                                        *
 * / \                                                            qs_scf.F:611 *
 *******************************************************************************


 ===== Routine Calling Stack ===== 

            3 scf_env_do_scf
            2 qs_energies
            1 CP2K

 *******************************************************************************
 *   ___                                                                       *
 *  /   \                                                                      *
 * [ABORT]                                                                     *
 *  \___/     SCF run NOT converged. To continue the calculation regardless,   *
 *    |             please set the keyword IGNORE_CONVERGENCE_FAILURE.         *
 *  O/|                                                                        *
 * /| |                                                                        *
 * / \                                                            qs_scf.F:611 *
 *******************************************************************************


 ===== Routine Calling Stack ===== 

            3 scf_env_do_scf
            2 qs_energies
            1 CP2K
