 DBCSR| CPU Multiplication driver                                           BLAS (U)
 DBCSR| Multrec recursion limit                                              512 (U)
 DBCSR| Multiplication stack size                                           1000 (D)
 DBCSR| Maximum elements for images                                    UNLIMITED (U)
 DBCSR| Multiplicative factor virtual images                                   1 (U)
 DBCSR| Use multiplication densification                                       T (D)
 DBCSR| Multiplication size stacks                                             3 (U)
 DBCSR| Use memory pool for CPU allocation                                     F (U)
 DBCSR| Number of 3D layers                                               SINGLE (U)
 DBCSR| Use MPI memory allocation                                              F (U)
 DBCSR| Use RMA algorithm                                                      F (U)
 DBCSR| Use Communication thread                                               T (U)
 DBCSR| Communication thread load                                             75 (D)
 DBCSR| MPI: My process id                                                     0
 DBCSR| MPI: Number of processes                                              24
 DBCSR| OMP: Current number of threads                                         4
 DBCSR| OMP: Max number of threads                                             4
 DBCSR| Split modifier for TAS multiplication algorithm                  1.0E+00 (U)


  **** **** ******  **  PROGRAM STARTED AT               2025-03-08 02:42:10.736
 ***** ** ***  *** **   PROGRAM STARTED ON                          i02r11c01s04
 **    ****   ******    PROGRAM STARTED BY                               di38fab
 ***** **    ** ** **   PROGRAM PROCESS ID                               1377522
  **** **  *******  **  PROGRAM STARTED IN /hppfs/scratch/04/di38fab/05_MOL/W4-1
                                           1+ALK/bn3pi/SZVSR

 CP2K| version string:                 CP2K version 2025.1 (Development Version)
 CP2K| source code revision number:                                  git:47877ba
 CP2K| cp2kflags: omp libint fftw3 libxc parallel scalapack max_contr=4         
 CP2K| is freely available from                            https://www.cp2k.org/
 CP2K| Program compiled at                          Thu Feb 20 16:00:34 CET 2025
 CP2K| Program compiled on                                               login04
 CP2K| Program compiled for                                        Supermuc-foss
 CP2K| Data directory path          /hppfs/work/pn36zo/di38fab/newcp2k/cp2k/data
 CP2K| Input file name                                                    GW.inp

 GLOBAL| Force Environment number                                              1
 GLOBAL| Basis set file name            /hppfs/scratch/04/di38fab/04_TMD/BASIS_A
 GLOBAL| Potential file name            /hppfs/work/pn36zo/di38fab/cp2k/data/ALL
 GLOBAL| MM Potential file name                                     MM_POTENTIAL
 GLOBAL| Coordinate file name                                      __STD_INPUT__
 GLOBAL| Method name                                                        CP2K
 GLOBAL| Project name                                                       MoS2
 GLOBAL| Run type                                                         ENERGY
 GLOBAL| FFT library                                                       FFTW3
 GLOBAL| Diagonalization library                                       ScaLAPACK
 GLOBAL| DGEMM library                                                      BLAS
 GLOBAL| Orthonormality check for eigenvectors                          DISABLED
 GLOBAL| Matrix multiplication library                                 ScaLAPACK
 GLOBAL| All-to-all communication in single precision                          F
 GLOBAL| FFTs using library dependent lengths                                  F
 GLOBAL| Grid backend                                                       AUTO
 GLOBAL| Global print level                                               MEDIUM
 GLOBAL| MPI I/O enabled                                                       T
 GLOBAL| Total number of message passing processes                            24
 GLOBAL| Number of threads for this process                                    4
 GLOBAL| This output is from process                                           0
 GLOBAL| OpenMP stack size per thread (OMP_STACKSIZE)                    default
 GLOBAL| CPU model name             Intel(R) Xeon(R) Platinum 8174 CPU @ 3.10GHz

 MEMORY| system memory details [Kb]
 MEMORY|                        rank 0           min           max       average
 MEMORY| MemTotal             98436660      98436660      98436664      98436662
 MEMORY| MemFree              83762828      83762828      84107032      83934930
 MEMORY| Buffers                     0             0             0             0
 MEMORY| Cached                2402568       2400288       2402568       2401428
 MEMORY| Slab                  1232228       1186884       1232228       1209556
 MEMORY| SReclaimable           274896        272364        274896        273630
 MEMORY| MemLikelyFree        86440292      86440292      86779684      86609988


 *** Fundamental physical constants (SI units) ***

 *** Literature: B. J. Mohr and B. N. Taylor,
 ***             CODATA recommended values of the fundamental physical
 ***             constants: 2006, Web Version 5.1
 ***             http://physics.nist.gov/constants

 Speed of light in vacuum [m/s]                             2.99792458000000E+08
 Magnetic constant or permeability of vacuum [N/A**2]       1.25663706143592E-06
 Electric constant or permittivity of vacuum [F/m]          8.85418781762039E-12
 Planck constant (h) [J*s]                                  6.62606896000000E-34
 Planck constant (h-bar) [J*s]                              1.05457162825177E-34
 Elementary charge [C]                                      1.60217648700000E-19
 Electron mass [kg]                                         9.10938215000000E-31
 Electron g factor [ ]                                     -2.00231930436220E+00
 Proton mass [kg]                                           1.67262163700000E-27
 Fine-structure constant                                    7.29735253760000E-03
 Rydberg constant [1/m]                                     1.09737315685270E+07
 Avogadro constant [1/mol]                                  6.02214179000000E+23
 Boltzmann constant [J/K]                                   1.38065040000000E-23
 Atomic mass unit [kg]                                      1.66053878200000E-27
 Bohr radius [m]                                            5.29177208590000E-11

 *** Conversion factors ***

 [u] -> [a.u.]                                              1.82288848426455E+03
 [Angstrom] -> [Bohr] = [a.u.]                              1.88972613288564E+00
 [a.u.] = [Bohr] -> [Angstrom]                              5.29177208590000E-01
 [a.u.] -> [s]                                              2.41888432650478E-17
 [a.u.] -> [fs]                                             2.41888432650478E-02
 [a.u.] -> [J]                                              4.35974393937059E-18
 [a.u.] -> [N]                                              8.23872205491840E-08
 [a.u.] -> [K]                                              3.15774647902944E+05
 [a.u.] -> [kJ/mol]                                         2.62549961709828E+03
 [a.u.] -> [kcal/mol]                                       6.27509468713739E+02
 [a.u.] -> [Pa]                                             2.94210107994716E+13
 [a.u.] -> [bar]                                            2.94210107994716E+08
 [a.u.] -> [atm]                                            2.90362800883016E+08
 [a.u.] -> [eV]                                             2.72113838565563E+01
 [a.u.] -> [Hz]                                             6.57968392072181E+15
 [a.u.] -> [1/cm] (wave numbers)                            2.19474631370540E+05
 [a.u./Bohr**2] -> [1/cm]                                   5.14048714338585E+03
 

 CELL_TOP| Volume [angstrom^3]:                                     27000.000000
 CELL_TOP| Vector a [angstrom    30.000     0.000     0.000   |a| =    30.000000
 CELL_TOP| Vector b [angstrom     0.000    30.000     0.000   |b| =    30.000000
 CELL_TOP| Vector c [angstrom     0.000     0.000    30.000   |c| =    30.000000
 CELL_TOP| Angle (b,c), alpha [degree]:                                90.000000
 CELL_TOP| Angle (a,c), beta  [degree]:                                90.000000
 CELL_TOP| Angle (a,b), gamma [degree]:                                90.000000
 CELL_TOP| Numerically orthorhombic:                                         YES
 CELL_TOP| Periodicity                                                      NONE

 GENERATE|  Preliminary Number of Bonds generated:                             0
 GENERATE|  Achieved consistency in connectivity generation.

 CELL| Volume [angstrom^3]:                                         27000.000000
 CELL| Vector a [angstrom]:      30.000     0.000     0.000   |a| =    30.000000
 CELL| Vector b [angstrom]:       0.000    30.000     0.000   |b| =    30.000000
 CELL| Vector c [angstrom]:       0.000     0.000    30.000   |c| =    30.000000
 CELL| Angle (b,c), alpha [degree]:                                    90.000000
 CELL| Angle (a,c), beta  [degree]:                                    90.000000
 CELL| Angle (a,b), gamma [degree]:                                    90.000000
 CELL| Numerically orthorhombic:                                             YES
 CELL| Periodicity                                                          NONE

 CELL_REF| Volume [angstrom^3]:                                     27000.000000
 CELL_REF| Vector a [angstrom    30.000     0.000     0.000   |a| =    30.000000
 CELL_REF| Vector b [angstrom     0.000    30.000     0.000   |b| =    30.000000
 CELL_REF| Vector c [angstrom     0.000     0.000    30.000   |c| =    30.000000
 CELL_REF| Angle (b,c), alpha [degree]:                                90.000000
 CELL_REF| Angle (a,c), beta  [degree]:                                90.000000
 CELL_REF| Angle (a,b), gamma [degree]:                                90.000000
 CELL_REF| Numerically orthorhombic:                                         YES
 CELL_REF| Periodicity                                                      NONE

 *******************************************************************************
 *******************************************************************************
 **                                                                           **
 **     #####                         ##              ##                      **
 **    ##   ##            ##          ##              ##                      **
 **   ##     ##                       ##            ######                    **
 **   ##     ##  ##   ##  ##   #####  ##  ##   ####   ##    #####    #####    **
 **   ##     ##  ##   ##  ##  ##      ## ##   ##      ##   ##   ##  ##   ##   **
 **   ##  ## ##  ##   ##  ##  ##      ####     ###    ##   ######   ######    **
 **    ##  ###   ##   ##  ##  ##      ## ##      ##   ##   ##       ##        **
 **     #######   #####   ##   #####  ##  ##  ####    ##    #####   ##        **
 **           ##                                                    ##        **
 **                                                                           **
 **                                                ... make the atoms dance   **
 **                                                                           **
 **            Copyright (C) by CP2K developers group (2000-2025)             **
 **                      J. Chem. Phys. 152, 194103 (2020)                    **
 **                                                                           **
 *******************************************************************************

 DFT| Spin restricted Kohn-Sham (RKS) calculation                            RKS
 DFT| Multiplicity                                                             1
 DFT| Number of spin states                                                    1
 DFT| Charge                                                                   0
 DFT| Self-interaction correction (SIC)                                       NO
 DFT| Cutoffs: density                                              1.000000E-10
 DFT|          gradient                                             1.000000E-10
 DFT|          tau                                                  1.000000E-10
 DFT|          cutoff_smoothing_range                               0.000000E+00
 DFT| XC density smoothing                                                  NONE
 DFT| XC derivatives                                                          PW

 FUNCTIONAL| PBE:
 FUNCTIONAL| J.P.Perdew, K.Burke, M.Ernzerhof, Phys. Rev. Letter, vol. 77, n 18,
 FUNCTIONAL|  pp. 3865-3868, (1996)sx=0.750sc=1.000{spin unpolarized}           


 QS| Method:                                                                GAPW
 QS| Density plane wave grid type                        NON-SPHERICAL FULLSPACE
 QS| Number of grid levels:                                                    4
 QS| Density cutoff [a.u.]:                                                250.0
 QS| Multi grid cutoff [a.u.]: 1) grid level                               250.0
 QS|                           2) grid level                                83.3
 QS|                           3) grid level                                27.8
 QS|                           4) grid level                                 9.3
 QS| Grid level progression factor:                                          3.0
 QS| Relative density cutoff [a.u.]:                                        50.0
 QS| Interaction thresholds: eps_pgf_orb:                                1.0E-12
 QS|                         eps_filter_matrix:                          0.0E+00
 QS|                         eps_core_charge:                            1.0E-14
 QS|                         eps_rho_gspace:                             1.0E-12
 QS|                         eps_rho_rspace:                             1.0E-12
 QS|                         eps_gvg_rspace:                             1.0E-06
 QS|                         eps_ppl:                                    1.0E-02
 QS|                         eps_ppnl:                                   1.0E-08
 QS| GAPW|      One center basis from orbital basis primitives
 QS| GAPW|                   eps_fit:                                    1.0E-04
 QS| GAPW|                   eps_iso:                                    1.0E-12
 QS| GAPW|                   eps_svd:                                    1.0E-08
 QS| GAPW|                   eps_cpc:                                    1.0E-12
 QS| GAPW|   atom-r-grid: quadrature:                                     GC_LOG
 QS| GAPW|      atom-s-grid:  max l :                                          4
 QS| GAPW|      max_l_rho0 :                                                   2


 ATOMIC KIND INFORMATION

  1. Atomic kind: B                                     Number of atoms:       1

     Orbital Basis Set                                         aug-SZV-MOLOPT-ae

       Number of orbital shell sets:                                           2
       Number of orbital shells:                                               6
       Number of primitive Cartesian functions:                               13
       Number of Cartesian basis functions:                                   15
       Number of spherical basis functions:                                   14
       Norm type:                                                              2

       Normalised Cartesian orbitals:

                        Set   Shell   Orbital            Exponent    Coefficient

                          1       1    1s                0.109280       0.032606
                                                         0.155613       0.000000
                                                         0.238409       0.144712
                                                         0.548949       0.113742
                                                         1.426820      -0.031435
                                                         4.590809      -0.105038
                                                        23.194561      -0.099829

                          1       2    2s                0.109280      -0.049098
                                                         0.155613      -0.119813
                                                         0.238409      -0.025283
                                                         0.548949       0.056653
                                                         1.426820       0.132404
                                                         4.590809       0.000000
                                                        23.194561       0.000000

                          1       3    2px               0.109280       0.009109
                                                         0.155613       0.000000
                                                         0.238409       0.101125
                                                         0.548949       0.281559
                                                         1.426820       0.386539
                                                         4.590809       0.360915
                                                        23.194561       0.272788
                          1       3    2py               0.109280       0.009109
                                                         0.155613       0.000000
                                                         0.238409       0.101125
                                                         0.548949       0.281559
                                                         1.426820       0.386539
                                                         4.590809       0.360915
                                                        23.194561       0.272788
                          1       3    2pz               0.109280       0.009109
                                                         0.155613       0.000000
                                                         0.238409       0.101125
                                                         0.548949       0.281559
                                                         1.426820       0.386539
                                                         4.590809       0.360915
                                                        23.194561       0.272788

                          1       4    3px               0.109280       0.062233
                                                         0.155613       0.035668
                                                         0.238409       0.015304
                                                         0.548949      -0.003054
                                                         1.426820       0.021875
                                                         4.590809       0.000000
                                                        23.194561       0.000000
                          1       4    3py               0.109280       0.062233
                                                         0.155613       0.035668
                                                         0.238409       0.015304
                                                         0.548949      -0.003054
                                                         1.426820       0.021875
                                                         4.590809       0.000000
                                                        23.194561       0.000000
                          1       4    3pz               0.109280       0.062233
                                                         0.155613       0.035668
                                                         0.238409       0.015304
                                                         0.548949      -0.003054
                                                         1.426820       0.021875
                                                         4.590809       0.000000
                                                        23.194561       0.000000

                          1       5    3dx2              0.109280       0.000986
                                                         0.155613       0.002022
                                                         0.238409       0.109458
                                                         0.548949       0.095099
                                                         1.426820       0.028232
                                                         4.590809       0.000000
                                                        23.194561       0.000000
                          1       5    3dxy              0.109280       0.001708
                                                         0.155613       0.003503
                                                         0.238409       0.189586
                                                         0.548949       0.164717
                                                         1.426820       0.048900
                                                         4.590809       0.000000
                                                        23.194561       0.000000
                          1       5    3dxz              0.109280       0.001708
                                                         0.155613       0.003503
                                                         0.238409       0.189586
                                                         0.548949       0.164717
                                                         1.426820       0.048900
                                                         4.590809       0.000000
                                                        23.194561       0.000000
                          1       5    3dy2              0.109280       0.000986
                                                         0.155613       0.002022
                                                         0.238409       0.109458
                                                         0.548949       0.095099
                                                         1.426820       0.028232
                                                         4.590809       0.000000
                                                        23.194561       0.000000
                          1       5    3dyz              0.109280       0.001708
                                                         0.155613       0.003503
                                                         0.238409       0.189586
                                                         0.548949       0.164717
                                                         1.426820       0.048900
                                                         4.590809       0.000000
                                                        23.194561       0.000000
                          1       5    3dz2              0.109280       0.000986
                                                         0.155613       0.002022
                                                         0.238409       0.109458
                                                         0.548949       0.095099
                                                         1.426820       0.028232
                                                         4.590809       0.000000
                                                        23.194561       0.000000

                          2       1    1s              506.011837       0.696781
                                                        92.776716       1.051665
                                                        25.955582       1.381280
                                                         8.916443       1.362748
                                                         3.462516       0.753460
                                                         1.426055       0.121219

     RI Auxiliary Basis Set             RI_aug-SZV-MOLOPT-ae_N_RI_035_s_p_d_f_g_

       Number of orbital shell sets:                                          13
       Number of orbital shells:                                              13
       Number of primitive Cartesian functions:                               13
       Number of Cartesian basis functions:                                   40
       Number of spherical basis functions:                                   35
       Norm type:                                                              2

       Normalised Cartesian orbitals:

                        Set   Shell   Orbital            Exponent    Coefficient

                          1       1    7px               0.266783       0.273299
                          1       1    7py               0.266783       0.273299
                          1       1    7pz               0.266783       0.273299

                          2       1    1s                0.279559       0.274009

                          3       1   11dx2              0.438811       0.389399
                          3       1   11dxy              0.438811       0.674459
                          3       1   11dxz              0.438811       0.674459
                          3       1   11dy2              0.438811       0.389399
                          3       1   11dyz              0.438811       0.674459
                          3       1   11dz2              0.438811       0.389399

                          4       1   13fx3              0.524510       0.344667
                          4       1   13fx2y             0.524510       0.770700
                          4       1   13fx2z             0.524510       0.770700
                          4       1   13fxy2             0.524510       0.770700
                          4       1   13fxyz             0.524510       1.334891
                          4       1   13fxz2             0.524510       0.770700
                          4       1   13fy3              0.524510       0.344667
                          4       1   13fy2z             0.524510       0.770700
                          4       1   13fyz2             0.524510       0.770700
                          4       1   13fz3              0.524510       0.344667

                          5       1    2s                0.649053       0.515371

                          6       1    8px               0.700602       0.913649
                          6       1    8py               0.700602       0.913649
                          6       1    8pz               0.700602       0.913649

                          7       1    3s                1.364167       0.899624

                          8       1   12dx2              1.905484       5.086498
                          8       1   12dxy              1.905484       8.810073
                          8       1   12dxz              1.905484       8.810073
                          8       1   12dy2              1.905484       5.086498
                          8       1   12dyz              1.905484       8.810073
                          8       1   12dz2              1.905484       5.086498

                          9       1    9px               2.433823       4.333127
                          9       1    9py               2.433823       4.333127
                          9       1    9pz               2.433823       4.333127

                         10       1    4s                4.732710       2.286875

                         11       1   10px              11.930396      31.605210
                         11       1   10py              11.930396      31.605210
                         11       1   10pz              11.930396      31.605210

                         12       1    5s               15.386625       5.536912

                         13       1    6s               46.757872      12.743865

       Atomic covalent radius [Angstrom]:                                  0.820

       Atomic van der Waals radius [Angstrom]:                             1.920

     The atoms of this atomic kind are PAW atoms (GAPW):
       Hard Gaussian function radius:                                      1.512
       Rho0 radius:                                                        1.512
       Maximum GTO radius used for PAW projector construction:            24.566

     GAPW Soft Basis Set                                  aug-SZV-MOLOPT-ae_soft

       Number of orbital shell sets:                                           2
       Number of orbital shells:                                               6
       Number of primitive Cartesian functions:                                7
       Number of Cartesian basis functions:                                   15
       Number of spherical basis functions:                                   14
       Norm type:                                                              2

       Normalised Cartesian orbitals:

                        Set   Shell   Orbital            Exponent    Coefficient

                          1       1    1s                0.109280       0.032606
                                                         0.155613       0.000000
                                                         0.238409       0.144712
                                                         0.548949       0.113742
                                                         1.426820      -0.031435

                          1       2    2s                0.109280      -0.049098
                                                         0.155613      -0.119813
                                                         0.238409      -0.025283
                                                         0.548949       0.056653
                                                         1.426820       0.132404

                          1       3    2px               0.109280       0.009109
                                                         0.155613       0.000000
                                                         0.238409       0.101125
                                                         0.548949       0.281559
                                                         1.426820       0.386539
                          1       3    2py               0.109280       0.009109
                                                         0.155613       0.000000
                                                         0.238409       0.101125
                                                         0.548949       0.281559
                                                         1.426820       0.386539
                          1       3    2pz               0.109280       0.009109
                                                         0.155613       0.000000
                                                         0.238409       0.101125
                                                         0.548949       0.281559
                                                         1.426820       0.386539

                          1       4    3px               0.109280       0.062233
                                                         0.155613       0.035668
                                                         0.238409       0.015304
                                                         0.548949      -0.003054
                                                         1.426820       0.021875
                          1       4    3py               0.109280       0.062233
                                                         0.155613       0.035668
                                                         0.238409       0.015304
                                                         0.548949      -0.003054
                                                         1.426820       0.021875
                          1       4    3pz               0.109280       0.062233
                                                         0.155613       0.035668
                                                         0.238409       0.015304
                                                         0.548949      -0.003054
                                                         1.426820       0.021875

                          1       5    3dx2              0.109280       0.000986
                                                         0.155613       0.002022
                                                         0.238409       0.109458
                                                         0.548949       0.095099
                                                         1.426820       0.028232
                          1       5    3dxy              0.109280       0.001708
                                                         0.155613       0.003503
                                                         0.238409       0.189586
                                                         0.548949       0.164717
                                                         1.426820       0.048900
                          1       5    3dxz              0.109280       0.001708
                                                         0.155613       0.003503
                                                         0.238409       0.189586
                                                         0.548949       0.164717
                                                         1.426820       0.048900
                          1       5    3dy2              0.109280       0.000986
                                                         0.155613       0.002022
                                                         0.238409       0.109458
                                                         0.548949       0.095099
                                                         1.426820       0.028232
                          1       5    3dyz              0.109280       0.001708
                                                         0.155613       0.003503
                                                         0.238409       0.189586
                                                         0.548949       0.164717
                                                         1.426820       0.048900
                          1       5    3dz2              0.109280       0.000986
                                                         0.155613       0.002022
                                                         0.238409       0.109458
                                                         0.548949       0.095099
                                                         1.426820       0.028232

                          2       1    1s                3.462516       0.753460
                                                         1.426055       0.121219

     AE Potential information for                                            ALL

       Description:                                       All-electron potential
                                          Krack, Parrinello, PCCP 2, 2105 (2000)

       Gaussian exponent of the core charge distribution:               2.655410
       Electronic configuration (s p d ...):                           4   1   0

  2. Atomic kind: N                                     Number of atoms:       1

     Orbital Basis Set                                      aug-SZV-MOLOPT-ae-SR

       Number of orbital shell sets:                                           2
       Number of orbital shells:                                               6
       Number of primitive Cartesian functions:                                7
       Number of Cartesian basis functions:                                   15
       Number of spherical basis functions:                                   14
       Norm type:                                                              2

       Normalised Cartesian orbitals:

                        Set   Shell   Orbital            Exponent    Coefficient

                          1       1    1s                0.112012       0.000000
                                                         0.285714       0.194997
                                                         0.878497       0.258372
                                                         3.780456      -0.193164

                          1       2    2s                0.112012       0.083551
                                                         0.285714      -0.189186
                                                         0.878497      -0.469875
                                                         3.780456      -0.002085

                          1       3    2px               0.112012       0.000000
                                                         0.285714       0.116706
                                                         0.878497       0.736704
                                                         3.780456       1.171553
                          1       3    2py               0.112012       0.000000
                                                         0.285714       0.116706
                                                         0.878497       0.736704
                                                         3.780456       1.171553
                          1       3    2pz               0.112012       0.000000
                                                         0.285714       0.116706
                                                         0.878497       0.736704
                                                         3.780456       1.171553

                          1       4    3px               0.112012       0.141957
                                                         0.285714      -0.286713
                                                         0.878497       0.074784
                                                         3.780456       0.008085
                          1       4    3py               0.112012       0.141957
                                                         0.285714      -0.286713
                                                         0.878497       0.074784
                                                         3.780456       0.008085
                          1       4    3pz               0.112012       0.141957
                                                         0.285714      -0.286713
                                                         0.878497       0.074784
                                                         3.780456       0.008085

                          1       5    3dx2              0.112012      -0.000364
                                                         0.285714       0.186009
                                                         0.878497      -0.044751
                                                         3.780456       1.815169
                          1       5    3dxy              0.112012      -0.000630
                                                         0.285714       0.322177
                                                         0.878497      -0.077512
                                                         3.780456       3.143965
                          1       5    3dxz              0.112012      -0.000630
                                                         0.285714       0.322177
                                                         0.878497      -0.077512
                                                         3.780456       3.143965
                          1       5    3dy2              0.112012      -0.000364
                                                         0.285714       0.186009
                                                         0.878497      -0.044751
                                                         3.780456       1.815169
                          1       5    3dyz              0.112012      -0.000630
                                                         0.285714       0.322177
                                                         0.878497      -0.077512
                                                         3.780456       3.143965
                          1       5    3dz2              0.112012      -0.000364
                                                         0.285714       0.186009
                                                         0.878497      -0.044751
                                                         3.780456       1.815169

                          2       1    1s               99.106169       3.454881
                                                        18.052312       3.341410
                                                         4.885660       1.041372

     RI Auxiliary Basis Set             RI_aug-SZV-MOLOPT-ae-SR_N_RI_089_s_p_d_f

       Number of orbital shell sets:                                          21
       Number of orbital shells:                                              21
       Number of primitive Cartesian functions:                               21
       Number of Cartesian basis functions:                                  120
       Number of spherical basis functions:                                   89
       Norm type:                                                              2

       Normalised Cartesian orbitals:

                        Set   Shell   Orbital            Exponent    Coefficient

                          1       1    1s                0.267502       0.265097

                          2       1    7px               0.363169       0.401861
                          2       1    7py               0.363169       0.401861
                          2       1    7pz               0.363169       0.401861

                          3       1   12dx2              0.369517       0.288250
                          3       1   12dxy              0.369517       0.499264
                          3       1   12dxz              0.369517       0.499264
                          3       1   12dy2              0.369517       0.288250
                          3       1   12dyz              0.369517       0.499264
                          3       1   12dz2              0.369517       0.288250

                          4       1    2s                0.470345       0.404783

                          5       1   16fx3              0.516119       0.332385
                          5       1   16fx2y             0.516119       0.743236
                          5       1   16fx2z             0.516119       0.743236
                          5       1   16fxy2             0.516119       0.743236
                          5       1   16fxyz             0.516119       1.287322
                          5       1   16fxz2             0.516119       0.743236
                          5       1   16fy3              0.516119       0.332385
                          5       1   16fy2z             0.516119       0.743236
                          5       1   16fyz2             0.516119       0.743236
                          5       1   16fz3              0.516119       0.332385

                          6       1   13dx2              0.573630       0.622322
                          6       1   13dxy              0.573630       1.077893
                          6       1   13dxz              0.573630       1.077893
                          6       1   13dy2              0.573630       0.622322
                          6       1   13dyz              0.573630       1.077893
                          6       1   13dz2              0.573630       0.622322

                          7       1    8px               0.636008       0.809596
                          7       1    8py               0.636008       0.809596
                          7       1    8pz               0.636008       0.809596

                          8       1   19gx4              0.870859       0.760838
                          8       1   19gx3y             0.870859       2.012988
                          8       1   19gx3z             0.870859       2.012988
                          8       1   19gx2y2            0.870859       2.598756
                          8       1   19gx2yz            0.870859       4.501178
                          8       1   19gx2z2            0.870859       2.598756
                          8       1   19gxy3             0.870859       2.012988
                          8       1   19gxy2z            0.870859       4.501178
                          8       1   19gxyz2            0.870859       4.501178
                          8       1   19gxz3             0.870859       2.012988
                          8       1   19gy4              0.870859       0.760838
                          8       1   19gy3z             0.870859       2.012988
                          8       1   19gy2z2            0.870859       2.598756
                          8       1   19gyz3             0.870859       2.012988
                          8       1   19gz4              0.870859       0.760838

                          9       1   17fx3              1.154647       2.034537
                          9       1   17fx2y             1.154647       4.549363
                          9       1   17fx2z             1.154647       4.549363
                          9       1   17fxy2             1.154647       4.549363
                          9       1   17fxyz             1.154647       7.879729
                          9       1   17fxz2             1.154647       4.549363
                          9       1   17fy3              1.154647       2.034537
                          9       1   17fy2z             1.154647       4.549363
                          9       1   17fyz2             1.154647       4.549363
                          9       1   17fz3              1.154647       2.034537

                         10       1   20gx4              1.247848       2.045878
                         10       1   20gx3y             1.247848       5.412884
                         10       1   20gx3z             1.247848       5.412884
                         10       1   20gx2y2            1.247848       6.988003
                         10       1   20gx2yz            1.247848      12.103577
                         10       1   20gx2z2            1.247848       6.988003
                         10       1   20gxy3             1.247848       5.412884
                         10       1   20gxy2z            1.247848      12.103577
                         10       1   20gxyz2            1.247848      12.103577
                         10       1   20gxz3             1.247848       5.412884
                         10       1   20gy4              1.247848       2.045878
                         10       1   20gy3z             1.247848       5.412884
                         10       1   20gy2z2            1.247848       6.988003
                         10       1   20gyz3             1.247848       5.412884
                         10       1   20gz4              1.247848       2.045878

                         11       1    3s                1.608218       1.017815

                         12       1   21gx4              1.820317       5.778825
                         12       1   21gx3y             1.820317      15.289334
                         12       1   21gx3z             1.820317      15.289334
                         12       1   21gx2y2            1.820317      19.738445
                         12       1   21gx2yz            1.820317      34.187990
                         12       1   21gx2z2            1.820317      19.738445
                         12       1   21gxy3             1.820317      15.289334
                         12       1   21gxy2z            1.820317      34.187990
                         12       1   21gxyz2            1.820317      34.187990
                         12       1   21gxz3             1.820317      15.289334
                         12       1   21gy4              1.820317       5.778825
                         12       1   21gy3z             1.820317      15.289334
                         12       1   21gy2z2            1.820317      19.738445
                         12       1   21gyz3             1.820317      15.289334
                         12       1   21gz4              1.820317       5.778825

                         13       1   14dx2              2.087918       5.969089
                         13       1   14dxy              2.087918      10.338765
                         13       1   14dxz              2.087918      10.338765
                         13       1   14dy2              2.087918       5.969089
                         13       1   14dyz              2.087918      10.338765
                         13       1   14dz2              2.087918       5.969089

                         14       1    9px               2.537910       4.565993
                         14       1    9py               2.537910       4.565993
                         14       1    9pz               2.537910       4.565993

                         15       1   18fx3              3.628403      26.749427
                         15       1   18fx2y             3.628403      59.813538
                         15       1   18fx2z             3.628403      59.813538
                         15       1   18fxy2             3.628403      59.813538
                         15       1   18fxyz             3.628403     103.600086
                         15       1   18fxz2             3.628403      59.813538
                         15       1   18fy3              3.628403      26.749427
                         15       1   18fy2z             3.628403      59.813538
                         15       1   18fyz2             3.628403      59.813538
                         15       1   18fz3              3.628403      26.749427

                         16       1   15dx2              5.366720      31.145839
                         16       1   15dxy              5.366720      53.946175
                         16       1   15dxz              5.366720      53.946175
                         16       1   15dy2              5.366720      31.145839
                         16       1   15dyz              5.366720      53.946175
                         16       1   15dz2              5.366720      31.145839

                         17       1    4s                7.348149       3.180853

                         18       1   10px               7.396841      17.387931
                         18       1   10py               7.396841      17.387931
                         18       1   10pz               7.396841      17.387931

                         19       1   11px              21.508501      66.024142
                         19       1   11py              21.508501      66.024142
                         19       1   11pz              21.508501      66.024142

                         20       1    5s               29.895673       9.112055

                         21       1    6s              109.779167      24.171302

       Atomic covalent radius [Angstrom]:                                  0.750

       Atomic van der Waals radius [Angstrom]:                             1.550

     The atoms of this atomic kind are PAW atoms (GAPW):
       Hard Gaussian function radius:                                      1.512
       Rho0 radius:                                                        1.512
       Maximum GTO radius used for PAW projector construction:            24.566

     GAPW Soft Basis Set                               aug-SZV-MOLOPT-ae-SR_soft

       Number of orbital shell sets:                                           2
       Number of orbital shells:                                               6
       Number of primitive Cartesian functions:                                4
       Number of Cartesian basis functions:                                   15
       Number of spherical basis functions:                                   14
       Norm type:                                                              2

       Normalised Cartesian orbitals:

                        Set   Shell   Orbital            Exponent    Coefficient

                          1       1    1s                0.112012       0.000000
                                                         0.285714       0.194997
                                                         0.878497       0.258372
                                                         3.780456      -0.193164

                          1       2    2s                0.112012       0.083551
                                                         0.285714      -0.189186
                                                         0.878497      -0.469875
                                                         3.780456      -0.002085

                          1       3    2px               0.112012       0.000000
                                                         0.285714       0.116706
                                                         0.878497       0.736704
                                                         3.780456       1.171553
                          1       3    2py               0.112012       0.000000
                                                         0.285714       0.116706
                                                         0.878497       0.736704
                                                         3.780456       1.171553
                          1       3    2pz               0.112012       0.000000
                                                         0.285714       0.116706
                                                         0.878497       0.736704
                                                         3.780456       1.171553

                          1       4    3px               0.112012       0.141957
                                                         0.285714      -0.286713
                                                         0.878497       0.074784
                                                         3.780456       0.008085
                          1       4    3py               0.112012       0.141957
                                                         0.285714      -0.286713
                                                         0.878497       0.074784
                                                         3.780456       0.008085
                          1       4    3pz               0.112012       0.141957
                                                         0.285714      -0.286713
                                                         0.878497       0.074784
                                                         3.780456       0.008085

                          1       5    3dx2              0.112012      -0.000364
                                                         0.285714       0.186009
                                                         0.878497      -0.044751
                                                         3.780456       1.815169
                          1       5    3dxy              0.112012      -0.000630
                                                         0.285714       0.322177
                                                         0.878497      -0.077512
                                                         3.780456       3.143965
                          1       5    3dxz              0.112012      -0.000630
                                                         0.285714       0.322177
                                                         0.878497      -0.077512
                                                         3.780456       3.143965
                          1       5    3dy2              0.112012      -0.000364
                                                         0.285714       0.186009
                                                         0.878497      -0.044751
                                                         3.780456       1.815169
                          1       5    3dyz              0.112012      -0.000630
                                                         0.285714       0.322177
                                                         0.878497      -0.077512
                                                         3.780456       3.143965
                          1       5    3dz2              0.112012      -0.000364
                                                         0.285714       0.186009
                                                         0.878497      -0.044751
                                                         3.780456       1.815169

                          2       1    1s         

     AE Potential information for                                            ALL

       Description:                                       All-electron potential
                                          Krack, Parrinello, PCCP 2, 2105 (2000)

       Gaussian exponent of the core charge distribution:               5.979100
       Electronic configuration (s p d ...):                           4   3   0


 MOLECULE KIND INFORMATION


 All atoms are their own molecule, skipping detailed information


 TOTAL NUMBERS AND MAXIMUM NUMBERS

  Total number of            - Atomic kinds:                                   2
                             - Atoms:                                          2
                             - Shell sets:                                     4
                             - Shells:                                        12
                             - Primitive Cartesian functions:                 20
                             - Cartesian basis functions:                     30
                             - Spherical basis functions:                     28

  Maximum angular momentum of the orbital basis functions:                     2


 MODULE QUICKSTEP: ATOMIC COORDINATES IN ANGSTROM

   Atom Kind Element         X             Y             Z       Z(eff)     Mass
      1    1 B     5     14.334900     15.000000     15.000000   5.0000  10.8110
      2    2 N     7     15.665100     15.000000     15.000000   7.0000  14.0067



 SCF PARAMETERS         Density guess:                                    ATOMIC
                        --------------------------------------------------------
                        max_scf:                                             500
                        max_scf_history:                                       0
                        max_diis:                                              4
                        --------------------------------------------------------
                        eps_scf:                                        1.00E-06
                        eps_scf_history:                                0.00E+00
                        eps_diis:                                       1.00E-01
                        eps_eigval:                                     1.00E-05
                        --------------------------------------------------------
                        level_shift [a.u.]:                             0.000000
                        added MOs                                        22    0
                        --------------------------------------------------------
                        Mixing method:                            BROYDEN_MIXING
                                                charge density mixing in g-space
                        --------------------------------------------------------
                        No outer SCF

 PW_GRID| Information for grid number                                          1
 PW_GRID| Grid distributed over                                    24 processors
 PW_GRID| Real space group dimensions                                    24    1
 PW_GRID| the grid is blocked:                                                NO
 PW_GRID| Cutoff [a.u.]                                                    250.0
 PW_GRID| spherical cutoff:                                                   NO
 PW_GRID|   Bounds   1           -202     202                Points:         405
 PW_GRID|   Bounds   2           -202     202                Points:         405
 PW_GRID|   Bounds   3           -202     202                Points:         405
 PW_GRID| Volume element (a.u.^3)  0.2743E-02     Volume (a.u.^3)    182205.0337
 PW_GRID| Grid span                                                    FULLSPACE
 PW_GRID|   Distribution                         Average         Max         Min
 PW_GRID|   G-Vectors                          2767921.9     2768175     2767770
 PW_GRID|   G-Rays                                6834.4        6835        6834
 PW_GRID|   Real Space Points                  2767921.9     2788425     2624400

 PW_GRID| Information for grid number                                          2
 PW_GRID| Number of the reference grid                                         1
 PW_GRID| Grid distributed over                                    24 processors
 PW_GRID| Real space group dimensions                                    24    1
 PW_GRID| the grid is blocked:                                                NO
 PW_GRID| Cutoff [a.u.]                                                     83.3
 PW_GRID| spherical cutoff:                                                   NO
 PW_GRID|   Bounds   1           -120     119                Points:         240
 PW_GRID|   Bounds   2           -120     119                Points:         240
 PW_GRID|   Bounds   3           -120     119                Points:         240
 PW_GRID| Volume element (a.u.^3)  0.1318E-01     Volume (a.u.^3)    182205.0337
 PW_GRID| Grid span                                                    FULLSPACE
 PW_GRID|   Distribution                         Average         Max         Min
 PW_GRID|   G-Vectors                           576000.0      576240      575760
 PW_GRID|   G-Rays                                2400.0        2401        2399
 PW_GRID|   Real Space Points                   576000.0      576000      576000

 PW_GRID| Information for grid number                                          3
 PW_GRID| Number of the reference grid                                         1
 PW_GRID| Grid distributed over                                    24 processors
 PW_GRID| Real space group dimensions                                    24    1
 PW_GRID| the grid is blocked:                                                NO
 PW_GRID| Cutoff [a.u.]                                                     27.8
 PW_GRID| spherical cutoff:                                                   NO
 PW_GRID|   Bounds   1            -67      67                Points:         135
 PW_GRID|   Bounds   2            -67      67                Points:         135
 PW_GRID|   Bounds   3            -67      67                Points:         135
 PW_GRID| Volume element (a.u.^3)  0.7406E-01     Volume (a.u.^3)    182205.0337
 PW_GRID| Grid span                                                    FULLSPACE
 PW_GRID|   Distribution                         Average         Max         Min
 PW_GRID|   G-Vectors                           102515.6      102735      102330
 PW_GRID|   G-Rays                                 759.4         761         758
 PW_GRID|   Real Space Points                   102515.6      109350       91125

 PW_GRID| Information for grid number                                          4
 PW_GRID| Number of the reference grid                                         1
 PW_GRID| Grid distributed over                                    24 processors
 PW_GRID| Real space group dimensions                                    24    1
 PW_GRID| the grid is blocked:                                                NO
 PW_GRID| Cutoff [a.u.]                                                      9.3
 PW_GRID| spherical cutoff:                                                   NO
 PW_GRID|   Bounds   1            -40      39                Points:          80
 PW_GRID|   Bounds   2            -40      39                Points:          80
 PW_GRID|   Bounds   3            -40      39                Points:          80
 PW_GRID| Volume element (a.u.^3)  0.3559         Volume (a.u.^3)    182205.0337
 PW_GRID| Grid span                                                    FULLSPACE
 PW_GRID|   Distribution                         Average         Max         Min
 PW_GRID|   G-Vectors                            21333.3       21360       21280
 PW_GRID|   G-Rays                                 266.7         267         266
 PW_GRID|   Real Space Points                    21333.3       25600       19200

 POISSON| Solver                                                         WAVELET
 POISSON| Wavelet| Scaling function                                           40
 POISSON| Periodicity                                                       NONE

 RS_GRID| Information for grid number                                          1
 RS_GRID|   Bounds   1           -202     202                Points:         405
 RS_GRID|   Bounds   2           -202     202                Points:         405
 RS_GRID|   Bounds   3           -202     202                Points:         405
 RS_GRID| Real space distribution over                                  4 groups
 RS_GRID| Real space distribution along direction                              2
 RS_GRID| Border size                                                         35
 RS_GRID| Real space distribution over                                  6 groups
 RS_GRID| Real space distribution along direction                              3
 RS_GRID| Border size                                                         35
 RS_GRID|   Distribution                         Average         Max         Min
 RS_GRID|   Planes                                 171.2         172         171
 RS_GRID|   Distribution                         Average         Max         Min
 RS_GRID|   Planes                                 137.5         138         137

 RS_GRID| Information for grid number                                          2
 RS_GRID|   Bounds   1           -120     119                Points:         240
 RS_GRID|   Bounds   2           -120     119                Points:         240
 RS_GRID|   Bounds   3           -120     119                Points:         240
 RS_GRID| Real space distribution over                                  4 groups
 RS_GRID| Real space distribution along direction                              2
 RS_GRID| Border size                                                         37
 RS_GRID| Real space distribution over                                  6 groups
 RS_GRID| Real space distribution along direction                              3
 RS_GRID| Border size                                                         37
 RS_GRID|   Distribution                         Average         Max         Min
 RS_GRID|   Planes                                 134.0         134         134
 RS_GRID|   Distribution                         Average         Max         Min
 RS_GRID|   Planes                                 114.0         114         114

 RS_GRID| Information for grid number                                          3
 RS_GRID|   Bounds   1            -67      67                Points:         135
 RS_GRID|   Bounds   2            -67      67                Points:         135
 RS_GRID|   Bounds   3            -67      67                Points:         135
 RS_GRID| Real space fully replicated
 RS_GRID| Group size                                                           1

 RS_GRID| Information for grid number                                          4
 RS_GRID|   Bounds   1            -40      39                Points:          80
 RS_GRID|   Bounds   2            -40      39                Points:          80
 RS_GRID|   Bounds   3            -40      39                Points:          80
 RS_GRID| Real space fully replicated
 RS_GRID| Group size                                                           1

  HFX_INFO| Replica ID:                                                        1
  HFX_INFO| FRACTION:                                               0.2500000000
  HFX_INFO| Interaction Potential:                                       COULOMB
  HFX_INFO| EPS_SCHWARZ:                                                 1.0E-10
  HFX_INFO| EPS_SCHWARZ_FORCES                                           1.0E-08
  HFX_INFO| EPS_STORAGE_SCALING:                                         1.0E+00
  HFX_INFO| NBINS:                                                            64
  HFX_INFO| BLOCK_SIZE:                                                        1
  HFX_INFO| Number of periodic shells considered:                           NONE
  HFX_INFO| Number of periodic cells considered:                            NONE

 
 RI-RPA| using GPW style
 

 OVERLAP MATRIX CONDITION NUMBER
 1-Norm Condition Number (Estimate)
   CN : |A|*|A^-1|:  4.692E+000 *  1.758E+002   = 8.250E+002  Log(1-CN):  2.9165
 1-Norm and 2-Norm Condition Numbers using Diagonalization
   CN : |A|*|A^-1|:  4.692E+000 *  1.758E+002   = 8.250E+002  Log(1-CN):  2.9165
   CN : max/min ev:  3.171E+000 /  9.612E-003   = 3.299E+002  Log(2-CN):  2.5183

 Number of electrons:                                                         12
 Number of occupied orbitals:                                                  6
 Number of molecular orbitals:                                                28

 Number of orbital functions:                                                 28
 Number of independent orbital functions:                                     28

 Extrapolation method: initial_guess

 Atomic guess: The first density matrix is obtained in terms of atomic orbitals
               and electronic configurations assigned to each atomic kind

 Guess for atomic kind: B

 Electronic structure
    Total number of core electrons                                          0.00
    Total number of valence electrons                                       5.00
    Total number of electrons                                               5.00
    Multiplicity                                                   not specified
    S      2.00  2.00
    P      1.00


 *******************************************************************************
                  Iteration          Convergence                     Energy [au]
 *******************************************************************************
                          1        0.612489E-01                 -24.304439508901
                          2        0.220484E-01                 -24.305945213911
                          3        0.367076E-03                 -24.306247196960
                          4        0.456899E-05                 -24.306247340970
                          5        0.241868E-07                 -24.306247340986

 Energy components [Hartree]           Total Energy ::          -24.306247340986
                                        Band Energy ::          -13.825803348850
                                     Kinetic Energy ::           23.970530113188
                                   Potential Energy ::          -48.276777454174
                                      Virial (-V/T) ::            2.014005415242
                                        Core Energy ::          -32.361048727638
                                          XC Energy ::           -3.546375173816
                                     Coulomb Energy ::           11.601176560468

 Orbital energies  State     L     Occupation   Energy[a.u.]          Energy[eV]

                       1     0          2.000      -6.531739         -177.737651
                       2     0          2.000      -0.324835           -8.839199

                       1     1          1.000      -0.112657           -3.065543


 Total Electron Density at R=0:                                        58.671969

 Guess for atomic kind: N

 Electronic structure
    Total number of core electrons                                          0.00
    Total number of valence electrons                                       7.00
    Total number of electrons                                               7.00
    Multiplicity                                                   not specified
    S      2.00  2.00
    P      3.00


 *******************************************************************************
                  Iteration          Convergence                     Energy [au]
 *******************************************************************************
                          1        0.159909                     -53.340877683251
                          2        0.769146E-01                 -53.353877926770
                          3        0.463278E-03                 -53.358451509292
                          4        0.156014E-03                 -53.358451645833
                          5        0.102251E-04                 -53.358451658533
                          6        0.178265E-08                 -53.358451658590

 Energy components [Hartree]           Total Energy ::          -53.358451658590
                                        Band Energy ::          -29.695765597812
                                     Kinetic Energy ::           52.385975587247
                                   Potential Energy ::         -105.744427245837
                                      Virial (-V/T) ::            2.018563672060
                                        Core Energy ::          -72.851122194822
                                          XC Energy ::           -6.109149652554
                                     Coulomb Energy ::           25.601820188786

 Orbital energies  State     L     Occupation   Energy[a.u.]          Energy[eV]

                       1     0          2.000     -13.845221         -376.747634
                       2     0          2.000      -0.658428          -17.916731

                       1     1          3.000      -0.229489           -6.244716


 Total Electron Density at R=0:                                       126.344533
 Re-scaling the density matrix to get the right number of electrons
                  # Electrons              Trace(P)               Scaling factor
                           12                12.000                        1.000


 SCF WAVEFUNCTION OPTIMIZATION

  Step     Update method      Time    Convergence         Total energy    Change
  ------------------------------------------------------------------------------

  HFX_MEM_INFO| Est. max. program size before HFX [MiB]:                    2157
  HFX_MEM_INFO| Number of cart. primitive ERI's calculated:             82318681
  HFX_MEM_INFO| Number of sph. ERI's calculated:                          230496
  HFX_MEM_INFO| Number of sph. ERI's stored in-core:                      230496
  HFX_MEM_INFO| Number of sph. ERI's stored on disk:                           0
  HFX_MEM_INFO| Number of sph. ERI's calculated on the fly:                    0
  HFX_MEM_INFO| Total memory consumption ERI's RAM [MiB]:                      2
  HFX_MEM_INFO| Whereof max-vals [MiB]:                                        1
  HFX_MEM_INFO| Total compression factor ERI's RAM:                         1.11
  HFX_MEM_INFO| Total memory consumption ERI's disk [MiB]:                     0
  HFX_MEM_INFO| Total compression factor ERI's disk:                        0.00
  HFX_MEM_INFO| Size of density/Fock matrix [MiB]:                             0
  HFX_MEM_INFO| Size of buffers [MiB]:                                         0
  HFX_MEM_INFO| Est. max. program size after HFX  [MiB]:                    2666

     1 NoMix/Diag. 0.10E+00    8.9     0.62081750       -78.7183027578 -7.87E+01
     2 Broy./Diag. 0.10E+00    5.0     0.12543564       -77.7132497953  1.01E+00
     3 Broy./Diag. 0.10E+00    5.3     0.16803160       -77.2120337403  5.01E-01
     4 Broy./Diag. 0.10E+00    5.2     0.27052126       -77.0627557435  1.49E-01
     5 Broy./Diag. 0.10E+00    5.2     0.21705441       -78.0620782735 -9.99E-01
     6 Broy./Diag. 0.10E+00    5.2     0.09635765       -78.4880902337 -4.26E-01
     7 Broy./Diag. 0.10E+00    5.2     0.04297330       -77.9596013756  5.28E-01
     8 Broy./Diag. 0.10E+00    5.3     0.26457324       -77.9850324020 -2.54E-02
     9 Broy./Diag. 0.10E+00    5.4     0.15169357       -78.7280143407 -7.43E-01
    10 Broy./Diag. 0.10E+00    5.5     0.15236741       -79.0230900006 -2.95E-01
    11 Broy./Diag. 0.10E+00    5.4     0.11287268       -79.3277981039 -3.05E-01
    12 Broy./Diag. 0.10E+00    5.3     0.09765676       -79.5147357277 -1.87E-01
    13 Broy./Diag. 0.10E+00    5.3     0.06378521       -79.6662615452 -1.52E-01
    14 Broy./Diag. 0.10E+00    5.3     0.02730613       -79.7225507350 -5.63E-02
    15 Broy./Diag. 0.10E+00    5.3     0.06885717       -79.7736327950 -5.11E-02
    16 Broy./Diag. 0.10E+00    5.4     0.13372707       -79.5618917057  2.12E-01
    17 Broy./Diag. 0.10E+00    5.7     0.14953720       -79.1560222822  4.06E-01
    18 Broy./Diag. 0.10E+00    5.7     0.15265839       -78.8237294273  3.32E-01
    19 Broy./Diag. 0.10E+00    5.8     0.10527529       -78.5805896132  2.43E-01
    20 Broy./Diag. 0.10E+00    5.6     0.06130714       -78.4602013905  1.20E-01
    21 Broy./Diag. 0.10E+00    5.6     0.05782379       -78.3989457460  6.13E-02
    22 Broy./Diag. 0.10E+00    5.5     0.04827045       -78.3095281256  8.94E-02
    23 Broy./Diag. 0.10E+00    5.5     0.02569271       -78.2307569838  7.88E-02
    24 Broy./Diag. 0.10E+00    5.6     0.01622535       -78.1803961794  5.04E-02
    25 Broy./Diag. 0.10E+00    5.5     0.02829494       -78.1351866635  4.52E-02
    26 Broy./Diag. 0.10E+00    5.4     0.02063717       -78.0467854558  8.84E-02
    27 Broy./Diag. 0.10E+00    5.4     0.01517408       -77.9992310563  4.76E-02
    28 Broy./Diag. 0.10E+00    5.3     0.05319294       -78.0543454872 -5.51E-02
    29 Broy./Diag. 0.10E+00    5.3     0.02175367       -78.2105943401 -1.56E-01
    30 Broy./Diag. 0.10E+00    5.3     0.09175302       -78.1874750827  2.31E-02
    31 Broy./Diag. 0.10E+00    5.3     0.05659249       -77.8719094079  3.16E-01
    32 Broy./Diag. 0.10E+00    5.4     0.11736325       -77.8130699350  5.88E-02
    33 Broy./Diag. 0.10E+00    5.6     0.16445160       -78.2385876612 -4.26E-01
    34 Broy./Diag. 0.10E+00    5.6     0.11033109       -78.6767649660 -4.38E-01
    35 Broy./Diag. 0.10E+00    5.6     0.04563681       -78.8581232017 -1.81E-01
    36 Broy./Diag. 0.10E+00    5.6     0.05764290       -78.7031652653  1.55E-01
    37 Broy./Diag. 0.10E+00    5.6     0.04249300       -78.5219613746  1.81E-01
    38 Broy./Diag. 0.10E+00    5.5     0.02185081       -78.4310340002  9.09E-02
    39 Broy./Diag. 0.10E+00    5.7     0.03585239       -78.3890219366  4.20E-02
    40 Broy./Diag. 0.10E+00    5.4     0.02818434       -78.3092022066  7.98E-02
    41 Broy./Diag. 0.10E+00    5.5     0.01069653       -78.2608346677  4.84E-02
[...]
   418 Broy./Diag. 0.10E+00    5.4     0.09342944       -78.4780024976  2.56E-01
   419 Broy./Diag. 0.10E+00    5.6     0.77121968       -78.2240345628  2.54E-01
   420 Broy./Diag. 0.10E+00    5.7     0.22487166       -76.9022577332  1.32E+00
   421 Broy./Diag. 0.10E+00    5.7     0.41045810       -77.5166596649 -6.14E-01
   422 Broy./Diag. 0.10E+00    5.7     0.26023536       -78.6799584942 -1.16E+00
   423 Broy./Diag. 0.10E+00    5.7     0.10626373       -79.2387775121 -5.59E-01
   424 Broy./Diag. 0.10E+00    5.6     0.08729295       -79.4240698104 -1.85E-01
   425 Broy./Diag. 0.10E+00    5.6     0.08042711       -79.5646611930 -1.41E-01
   426 Broy./Diag. 0.10E+00    5.5     0.06195949       -79.6903745587 -1.26E-01
   427 Broy./Diag. 0.10E+00    5.4     0.07119932       -79.6986151859 -8.24E-03
   428 Broy./Diag. 0.10E+00    5.4     0.09347065       -79.4531747321  2.45E-01
   429 Broy./Diag. 0.10E+00    5.4     0.08353011       -79.2094160239  2.44E-01
   430 Broy./Diag. 0.10E+00    5.4     0.05345427       -79.1009436649  1.08E-01
   431 Broy./Diag. 0.10E+00    5.4     0.07079896       -79.0849216869  1.60E-02
   432 Broy./Diag. 0.10E+00    5.5     0.16743986       -78.9426358266  1.42E-01
   433 Broy./Diag. 0.10E+00    5.5     0.22865559       -78.4618998512  4.81E-01
   434 Broy./Diag. 0.10E+00    5.8     0.11708131       -77.8701436162  5.92E-01
   435 Broy./Diag. 0.10E+00    5.7     0.48239344       -77.9227651589 -5.26E-02
   436 Broy./Diag. 0.10E+00    5.7     0.15329848       -79.4700504256 -1.55E+00
   437 Broy./Diag. 0.10E+00    5.7     0.11677316       -79.6537537389 -1.84E-01
   438 Broy./Diag. 0.10E+00    5.6     0.29146981       -79.9916438111 -3.38E-01
   439 Broy./Diag. 0.10E+00    5.6     0.13611096       -80.5803050183 -5.89E-01
   440 Broy./Diag. 0.10E+00    5.5     0.44486855       -80.1040831341  4.76E-01
   441 Broy./Diag. 0.10E+00    5.5     0.45100567       -78.8218755404  1.28E+00
   442 Broy./Diag. 0.10E+00    5.4     0.09055136       -77.7624707622  1.06E+00
   443 Broy./Diag. 0.10E+00    5.4     0.39972672       -78.1359768382 -3.74E-01
   444 Broy./Diag. 0.10E+00    5.4     0.15419568       -79.3197635474 -1.18E+00
   445 Broy./Diag. 0.10E+00    5.4     0.12979833       -79.6323076540 -3.13E-01
   446 Broy./Diag. 0.10E+00    5.5     0.08655413       -79.9391615460 -3.07E-01
   447 Broy./Diag. 0.10E+00    5.5     0.03229433       -80.0638797343 -1.25E-01
   448 Broy./Diag. 0.10E+00    5.4     0.02881328       -80.0909314544 -2.71E-02
   449 Broy./Diag. 0.10E+00    5.6     0.05225821       -80.1730710354 -8.21E-02
   450 Broy./Diag. 0.10E+00    5.5     0.01374456       -80.2888741714 -1.16E-01
   451 Broy./Diag. 0.10E+00    5.7     0.02632143       -80.2753356219  1.35E-02
   452 Broy./Diag. 0.10E+00    5.7     0.06123662       -80.3473446862 -7.20E-02
   453 Broy./Diag. 0.10E+00    5.6     0.24506192       -80.3431115418  4.23E-03
   454 Broy./Diag. 0.10E+00    5.5     0.16356909       -79.7259925263  6.17E-01
   455 Broy./Diag. 0.10E+00    5.5     0.18910593       -79.2438692703  4.82E-01
   456 Broy./Diag. 0.10E+00    5.5     0.54019482       -78.8974974540  3.46E-01
   457 Broy./Diag. 0.10E+00    5.5     0.11819631       -77.5157296121  1.38E+00
   458 Broy./Diag. 0.10E+00    5.5     0.17616663       -77.4575418819  5.82E-02
   459 Broy./Diag. 0.10E+00    5.4     0.23196789       -78.0911073859 -6.34E-01
   460 Broy./Diag. 0.10E+00    5.5     0.14365951       -78.7390110941 -6.48E-01
   461 Broy./Diag. 0.10E+00    5.5     0.03883333       -78.9954486147 -2.56E-01
   462 Broy./Diag. 0.10E+00    5.4     0.07978978       -78.8695620792  1.26E-01
   463 Broy./Diag. 0.10E+00    5.4     0.02114549       -78.6429471888  2.27E-01
   464 Broy./Diag. 0.10E+00    5.4     0.07468427       -78.7352843312 -9.23E-02
   465 Broy./Diag. 0.10E+00    5.4     0.04397385       -78.9360992548 -2.01E-01
   466 Broy./Diag. 0.10E+00    5.4     0.10283890       -79.0378607664 -1.02E-01
   467 Broy./Diag. 0.10E+00    5.7     0.17943308       -79.3062565342 -2.68E-01
   468 Broy./Diag. 0.10E+00    5.7     0.13112645       -79.7724827754 -4.66E-01
   469 Broy./Diag. 0.10E+00    5.8     0.05044655       -79.9804575442 -2.08E-01
   470 Broy./Diag. 0.10E+00    5.7     0.04214606       -79.9770346843  3.42E-03
   471 Broy./Diag. 0.10E+00    5.6     0.06178960       -79.8565029779  1.21E-01
   472 Broy./Diag. 0.10E+00    5.7     0.03780579       -79.7592724129  9.72E-02
   473 Broy./Diag. 0.10E+00    5.6     0.02831250       -79.8154323813 -5.62E-02
   474 Broy./Diag. 0.10E+00    5.5     0.14349570       -79.8178610325 -2.43E-03
   475 Broy./Diag. 0.10E+00    5.6     0.28856589       -79.3586662481  4.59E-01
   476 Broy./Diag. 0.10E+00    5.5     0.32918146       -78.4842252558  8.74E-01
   477 Broy./Diag. 0.10E+00    5.5     0.12012712       -77.5635226397  9.21E-01
   478 Broy./Diag. 0.10E+00    5.4     0.24576632       -78.0233796375 -4.60E-01
   479 Broy./Diag. 0.10E+00    5.6     0.14695002       -78.8282739369 -8.05E-01
   480 Broy./Diag. 0.10E+00    5.7     0.32492248       -79.3546107001 -5.26E-01
   481 Broy./Diag. 0.10E+00    5.7     0.08202111       -80.2481839315 -8.94E-01
   482 Broy./Diag. 0.10E+00    5.7     0.11094983       -80.1525022686  9.57E-02
   483 Broy./Diag. 0.10E+00    5.5     0.10299883       -79.7925184847  3.60E-01
   484 Broy./Diag. 0.10E+00    5.5     0.21106619       -79.6354499969  1.57E-01
   485 Broy./Diag. 0.10E+00    5.5     0.22037123       -79.2759270505  3.60E-01
   486 Broy./Diag. 0.10E+00    5.5     0.15085064       -78.8643846096  4.12E-01
   487 Broy./Diag. 0.10E+00    5.4     0.07384136       -78.5985784014  2.66E-01
   488 Broy./Diag. 0.10E+00    5.5     0.80695202       -78.2621557445  3.36E-01
   489 Broy./Diag. 0.10E+00    5.5     0.24775557       -76.5766769452  1.69E+00
   490 Broy./Diag. 0.10E+00    5.4     0.13702733       -77.1604294355 -5.84E-01
   491 Broy./Diag. 0.10E+00    5.4     0.20533258       -77.6522241563 -4.92E-01
   492 Broy./Diag. 0.10E+00    5.5     0.17723160       -78.3035322784 -6.51E-01
   493 Broy./Diag. 0.10E+00    5.5     0.23402589       -78.7674100085 -4.64E-01
   494 Broy./Diag. 0.10E+00    5.5     0.07759823       -79.2444819686 -4.77E-01
   495 Broy./Diag. 0.10E+00    5.5     0.02969502       -79.0343839872  2.10E-01
   496 Broy./Diag. 0.10E+00    5.6     0.03390505       -79.0830193834 -4.86E-02
   497 Broy./Diag. 0.10E+00    5.7     0.03867984       -79.1622912878 -7.93E-02
   498 Broy./Diag. 0.10E+00    5.7     0.04672593       -79.2276390372 -6.53E-02
   499 Broy./Diag. 0.10E+00    5.6     0.05598046       -79.2946545922 -6.70E-02
   500 Broy./Diag. 0.10E+00    5.5     0.08227821       -79.4269976104 -1.32E-01

  Leaving inner SCF loop after reaching   500 steps.


  Electronic density on regular grids:         -8.6703878805        3.3296121195
  Core density on regular grids:               12.0000000000        0.0000000000
  Hard and soft densities (Lebedev):          -22.0837619884      -18.7506430329
  Total Rho_soft + Rho1_hard - Rho1_soft      -12.0035068360
  Total charge density (r-space):              -0.0035068360
  Total Rho_soft + Rho0_soft (g-space):        -0.0035069186

  Overlap energy of the core charge distribution:               0.00001993455823
  Self energy of the core charge distribution:                -64.05191455199152
  Core Hamiltonian energy:                                    -14.85841908338001
  Hartree energy:                                              17.08045014720198
  Exchange-correlation energy:                                 -2.93863199360386
  Hartree-Fock Exchange energy:                                -2.49533904219523

  GAPW| Exc from hard and soft atomic rho1:                    -5.08411587794509
  GAPW| local Eh = 1 center integrals:                         -7.07904714304581

  Total energy:                                               -79.42699761040132

 *******************************************************************************
 *   ___                                                                       *
 *  /   \                                                                      *
 * [ABORT]                                                                     *
 *  \___/     SCF run NOT converged. To continue the calculation regardless,   *
 *    |             please set the keyword IGNORE_CONVERGENCE_FAILURE.         *
 *  O/|                                                                        *
 * /| |                                                                        *
 * / \                                                            qs_scf.F:611 *
 *******************************************************************************


 ===== Routine Calling Stack ===== 

            3 scf_env_do_scf
            2 qs_energies
            1 CP2K

 *******************************************************************************
 *   ___                                                                       *
 *  /   \                                                                      *
 * [ABORT]                                                                     *
 *  \___/     SCF run NOT converged. To continue the calculation regardless,   *
 *    |             please set the keyword IGNORE_CONVERGENCE_FAILURE.         *
 *  O/|                                                                        *
 * /| |                                                                        *
 * / \                                                            qs_scf.F:611 *
 *******************************************************************************


 ===== Routine Calling Stack ===== 

            3 scf_env_do_scf
            2 qs_energies
            1 CP2K

 *******************************************************************************
 *   ___                                                                       *
 *  /   \                                                                      *
 * [ABORT]                                                                     *
 *  \___/     SCF run NOT converged. To continue the calculation regardless,   *
 *    |             please set the keyword IGNORE_CONVERGENCE_FAILURE.         *
 *  O/|                                                                        *
 * /| |                                                                        *
 * / \                                                            qs_scf.F:611 *
 *******************************************************************************


 ===== Routine Calling Stack ===== 

            3 scf_env_do_scf
            2 qs_energies
            1 CP2K

 *******************************************************************************
 *   ___                                                                       *
 *  /   \                                                                      *
 * [ABORT]                                                                     *
 *  \___/     SCF run NOT converged. To continue the calculation regardless,   *
 *    |             please set the keyword IGNORE_CONVERGENCE_FAILURE.         *
 *  O/|                                                                        *
 * /| |                                                                        *
 * / \                                                            qs_scf.F:611 *
 *******************************************************************************


 ===== Routine Calling Stack ===== 

            3 scf_env_do_scf
            2 qs_energies
            1 CP2K

 *******************************************************************************
 *   ___                                                                       *
 *  /   \                                                                      *
 * [ABORT]                                                                     *
 *  \___/     SCF run NOT converged. To continue the calculation regardless,   *
 *    |             please set the keyword IGNORE_CONVERGENCE_FAILURE.         *
 *  O/|                                                                        *
 * /| |                                                                        *
 * / \                                                            qs_scf.F:611 *
 *******************************************************************************


 ===== Routine Calling Stack ===== 

            3 scf_env_do_scf
            2 qs_energies
            1 CP2K

 *******************************************************************************
 *   ___                                                                       *
 *  /   \                                                                      *
 * [ABORT]                                                                     *
 *  \___/     SCF run NOT converged. To continue the calculation regardless,   *
 *    |             please set the keyword IGNORE_CONVERGENCE_FAILURE.         *
 *  O/|                                                                        *
 * /| |                                                                        *
 * / \                                                            qs_scf.F:611 *
 *******************************************************************************


 ===== Routine Calling Stack ===== 

            3 scf_env_do_scf
            2 qs_energies
            1 CP2K

 *******************************************************************************
 *   ___                                                                       *
 *  /   \                                                                      *
 * [ABORT]                                                                     *
 *  \___/     SCF run NOT converged. To continue the calculation regardless,   *
 *    |             please set the keyword IGNORE_CONVERGENCE_FAILURE.         *
 *  O/|                                                                        *
 * /| |                                                                        *
 * / \                                                            qs_scf.F:611 *
 *******************************************************************************


 ===== Routine Calling Stack ===== 

            3 scf_env_do_scf
            2 qs_energies
            1 CP2K

 *******************************************************************************
 *   ___                                                                       *
 *  /   \                                                                      *
 * [ABORT]                                                                     *
 *  \___/     SCF run NOT converged. To continue the calculation regardless,   *
 *    |             please set the keyword IGNORE_CONVERGENCE_FAILURE.         *
 *  O/|                                                                        *
 * /| |                                                                        *
 * / \                                                            qs_scf.F:611 *
 *******************************************************************************


 ===== Routine Calling Stack ===== 

            3 scf_env_do_scf
            2 qs_energies
            1 CP2K

 *******************************************************************************
 *   ___                                                                       *
 *  /   \                                                                      *
 * [ABORT]                                                                     *
 *  \___/     SCF run NOT converged. To continue the calculation regardless,   *
 *    |             please set the keyword IGNORE_CONVERGENCE_FAILURE.         *
 *  O/|                                                                        *
 * /| |                                                                        *
 * / \                                                            qs_scf.F:611 *
 *******************************************************************************


 ===== Routine Calling Stack ===== 

            3 scf_env_do_scf
            2 qs_energies
            1 CP2K

 *******************************************************************************
 *   ___                                                                       *
 *  /   \                                                                      *
 * [ABORT]                                                                     *
 *  \___/     SCF run NOT converged. To continue the calculation regardless,   *
 *    |             please set the keyword IGNORE_CONVERGENCE_FAILURE.         *
 *  O/|                                                                        *
 * /| |                                                                        *
 * / \                                                            qs_scf.F:611 *
 *******************************************************************************


 ===== Routine Calling Stack ===== 

            3 scf_env_do_scf
            2 qs_energies
            1 CP2K

 *******************************************************************************
 *   ___                                                                       *
 *  /   \                                                                      *
 * [ABORT]                                                                     *
 *  \___/     SCF run NOT converged. To continue the calculation regardless,   *
 *    |             please set the keyword IGNORE_CONVERGENCE_FAILURE.         *
 *  O/|                                                                        *
 * /| |                                                                        *
 * / \                                                            qs_scf.F:611 *
 *******************************************************************************


 ===== Routine Calling Stack ===== 

            3 scf_env_do_scf
            2 qs_energies
            1 CP2K

 *******************************************************************************
 *   ___                                                                       *
 *  /   \                                                                      *
 * [ABORT]                                                                     *
 *  \___/     SCF run NOT converged. To continue the calculation regardless,   *
 *    |             please set the keyword IGNORE_CONVERGENCE_FAILURE.         *
 *  O/|                                                                        *
 * /| |                                                                        *
 * / \                                                            qs_scf.F:611 *
 *******************************************************************************


 ===== Routine Calling Stack ===== 

            3 scf_env_do_scf
            2 qs_energies
            1 CP2K

 *******************************************************************************
 *   ___                                                                       *
 *  /   \                                                                      *
 * [ABORT]                                                                     *
 *  \___/     SCF run NOT converged. To continue the calculation regardless,   *
 *    |             please set the keyword IGNORE_CONVERGENCE_FAILURE.         *
 *  O/|                                                                        *
 * /| |                                                                        *
 * / \                                                            qs_scf.F:611 *
 *******************************************************************************


 ===== Routine Calling Stack ===== 

            3 scf_env_do_scf
            2 qs_energies
            1 CP2K
