 DBCSR| CPU Multiplication driver                                           BLAS (U)
 DBCSR| Multrec recursion limit                                              512 (U)
 DBCSR| Multiplication stack size                                           1000 (D)
 DBCSR| Maximum elements for images                                    UNLIMITED (U)
 DBCSR| Multiplicative factor virtual images                                   1 (U)
 DBCSR| Use multiplication densification                                       T (D)
 DBCSR| Multiplication size stacks                                             3 (U)
 DBCSR| Use memory pool for CPU allocation                                     F (U)
 DBCSR| Number of 3D layers                                               SINGLE (U)
 DBCSR| Use MPI memory allocation                                              F (U)
 DBCSR| Use RMA algorithm                                                      F (U)
 DBCSR| Use Communication thread                                               T (U)
 DBCSR| Communication thread load                                             75 (D)
 DBCSR| MPI: My process id                                                     0
 DBCSR| MPI: Number of processes                                              24
 DBCSR| OMP: Current number of threads                                         4
 DBCSR| OMP: Max number of threads                                             4
 DBCSR| Split modifier for TAS multiplication algorithm                  1.0E+00 (U)


  **** **** ******  **  PROGRAM STARTED AT               2025-03-11 05:51:42.812
 ***** ** ***  *** **   PROGRAM STARTED ON                          i02r04c06s11
 **    ****   ******    PROGRAM STARTED BY                               di38fab
 ***** **    ** ** **   PROGRAM PROCESS ID                                 52846
  **** **  *******  **  PROGRAM STARTED IN /hppfs/scratch/04/di38fab/05_MOL/W4-1
                                           1+ALK/bn/aug-cc-pVDZ

 CP2K| version string:                 CP2K version 2025.1 (Development Version)
 CP2K| source code revision number:                                  git:d2e611a
 CP2K| cp2kflags: omp libint fftw3 libxc parallel scalapack max_contr=4         
 CP2K| is freely available from                            https://www.cp2k.org/
 CP2K| Program compiled at                       Thu 06 Mar 2025 05:09:20 PM CET
 CP2K| Program compiled on                                               login02
 CP2K| Program compiled for                                        Supermuc-foss
 CP2K| Data directory path                  /hppfs/work/pn36zo/di38fab/cp2k/data
 CP2K| Input file name                                                    GW.inp

 GLOBAL| Force Environment number                                              1
 GLOBAL| Basis set file name            /hppfs/scratch/04/di38fab/04_TMD/BASIS_A
 GLOBAL| Potential file name            /hppfs/work/pn36zo/di38fab/cp2k/data/ALL
 GLOBAL| MM Potential file name                                     MM_POTENTIAL
 GLOBAL| Coordinate file name                                      __STD_INPUT__
 GLOBAL| Method name                                                        CP2K
 GLOBAL| Project name                                                       MoS2
 GLOBAL| Run type                                                         ENERGY
 GLOBAL| FFT library                                                       FFTW3
 GLOBAL| Diagonalization library                                       ScaLAPACK
 GLOBAL| DGEMM library                                                      BLAS
 GLOBAL| Orthonormality check for eigenvectors                          DISABLED
 GLOBAL| Matrix multiplication library                                 ScaLAPACK
 GLOBAL| All-to-all communication in single precision                          F
 GLOBAL| FFTs using library dependent lengths                                  F
 GLOBAL| Grid backend                                                       AUTO
 GLOBAL| Global print level                                               MEDIUM
 GLOBAL| MPI I/O enabled                                                       T
 GLOBAL| Total number of message passing processes                            24
 GLOBAL| Number of threads for this process                                    4
 GLOBAL| This output is from process                                           0
 GLOBAL| OpenMP stack size per thread (OMP_STACKSIZE)                    default
 GLOBAL| CPU model name             Intel(R) Xeon(R) Platinum 8174 CPU @ 3.10GHz

 MEMORY| system memory details [Kb]
 MEMORY|                        rank 0           min           max       average
 MEMORY| MemTotal             98436664      98436664      98436664      98436664
 MEMORY| MemFree              84009068      83957896      84009068      83983482
 MEMORY| Buffers                     0             0             0             0
 MEMORY| Cached                2471708       2447476       2471708       2459592
 MEMORY| Slab                  1238684       1238684       1253072       1245878
 MEMORY| SReclaimable           263692        263692        268260        265976
 MEMORY| MemLikelyFree        86744468      86673632      86744468      86709050


 *** Fundamental physical constants (SI units) ***

 *** Literature: B. J. Mohr and B. N. Taylor,
 ***             CODATA recommended values of the fundamental physical
 ***             constants: 2006, Web Version 5.1
 ***             http://physics.nist.gov/constants

 Speed of light in vacuum [m/s]                             2.99792458000000E+08
 Magnetic constant or permeability of vacuum [N/A**2]       1.25663706143592E-06
 Electric constant or permittivity of vacuum [F/m]          8.85418781762039E-12
 Planck constant (h) [J*s]                                  6.62606896000000E-34
 Planck constant (h-bar) [J*s]                              1.05457162825177E-34
 Elementary charge [C]                                      1.60217648700000E-19
 Electron mass [kg]                                         9.10938215000000E-31
 Electron g factor [ ]                                     -2.00231930436220E+00
 Proton mass [kg]                                           1.67262163700000E-27
 Fine-structure constant                                    7.29735253760000E-03
 Rydberg constant [1/m]                                     1.09737315685270E+07
 Avogadro constant [1/mol]                                  6.02214179000000E+23
 Boltzmann constant [J/K]                                   1.38065040000000E-23
 Atomic mass unit [kg]                                      1.66053878200000E-27
 Bohr radius [m]                                            5.29177208590000E-11

 *** Conversion factors ***

 [u] -> [a.u.]                                              1.82288848426455E+03
 [Angstrom] -> [Bohr] = [a.u.]                              1.88972613288564E+00
 [a.u.] = [Bohr] -> [Angstrom]                              5.29177208590000E-01
 [a.u.] -> [s]                                              2.41888432650478E-17
 [a.u.] -> [fs]                                             2.41888432650478E-02
 [a.u.] -> [J]                                              4.35974393937059E-18
 [a.u.] -> [N]                                              8.23872205491840E-08
 [a.u.] -> [K]                                              3.15774647902944E+05
 [a.u.] -> [kJ/mol]                                         2.62549961709828E+03
 [a.u.] -> [kcal/mol]                                       6.27509468713739E+02
 [a.u.] -> [Pa]                                             2.94210107994716E+13
 [a.u.] -> [bar]                                            2.94210107994716E+08
 [a.u.] -> [atm]                                            2.90362800883016E+08
 [a.u.] -> [eV]                                             2.72113838565563E+01
 [a.u.] -> [Hz]                                             6.57968392072181E+15
 [a.u.] -> [1/cm] (wave numbers)                            2.19474631370540E+05
 [a.u./Bohr**2] -> [1/cm]                                   5.14048714338585E+03
 

 CELL_TOP| Volume [angstrom^3]:                                     27000.000000
 CELL_TOP| Vector a [angstrom    30.000     0.000     0.000   |a| =    30.000000
 CELL_TOP| Vector b [angstrom     0.000    30.000     0.000   |b| =    30.000000
 CELL_TOP| Vector c [angstrom     0.000     0.000    30.000   |c| =    30.000000
 CELL_TOP| Angle (b,c), alpha [degree]:                                90.000000
 CELL_TOP| Angle (a,c), beta  [degree]:                                90.000000
 CELL_TOP| Angle (a,b), gamma [degree]:                                90.000000
 CELL_TOP| Numerically orthorhombic:                                         YES
 CELL_TOP| Periodicity                                                      NONE

 GENERATE|  Preliminary Number of Bonds generated:                             0
 GENERATE|  Achieved consistency in connectivity generation.

 CELL| Volume [angstrom^3]:                                         27000.000000
 CELL| Vector a [angstrom]:      30.000     0.000     0.000   |a| =    30.000000
 CELL| Vector b [angstrom]:       0.000    30.000     0.000   |b| =    30.000000
 CELL| Vector c [angstrom]:       0.000     0.000    30.000   |c| =    30.000000
 CELL| Angle (b,c), alpha [degree]:                                    90.000000
 CELL| Angle (a,c), beta  [degree]:                                    90.000000
 CELL| Angle (a,b), gamma [degree]:                                    90.000000
 CELL| Numerically orthorhombic:                                             YES
 CELL| Periodicity                                                          NONE

 CELL_REF| Volume [angstrom^3]:                                     27000.000000
 CELL_REF| Vector a [angstrom    30.000     0.000     0.000   |a| =    30.000000
 CELL_REF| Vector b [angstrom     0.000    30.000     0.000   |b| =    30.000000
 CELL_REF| Vector c [angstrom     0.000     0.000    30.000   |c| =    30.000000
 CELL_REF| Angle (b,c), alpha [degree]:                                90.000000
 CELL_REF| Angle (a,c), beta  [degree]:                                90.000000
 CELL_REF| Angle (a,b), gamma [degree]:                                90.000000
 CELL_REF| Numerically orthorhombic:                                         YES
 CELL_REF| Periodicity                                                      NONE

 *******************************************************************************
 *******************************************************************************
 **                                                                           **
 **     #####                         ##              ##                      **
 **    ##   ##            ##          ##              ##                      **
 **   ##     ##                       ##            ######                    **
 **   ##     ##  ##   ##  ##   #####  ##  ##   ####   ##    #####    #####    **
 **   ##     ##  ##   ##  ##  ##      ## ##   ##      ##   ##   ##  ##   ##   **
 **   ##  ## ##  ##   ##  ##  ##      ####     ###    ##   ######   ######    **
 **    ##  ###   ##   ##  ##  ##      ## ##      ##   ##   ##       ##        **
 **     #######   #####   ##   #####  ##  ##  ####    ##    #####   ##        **
 **           ##                                                    ##        **
 **                                                                           **
 **                                                ... make the atoms dance   **
 **                                                                           **
 **            Copyright (C) by CP2K developers group (2000-2025)             **
 **                      J. Chem. Phys. 152, 194103 (2020)                    **
 **                                                                           **
 *******************************************************************************

 DFT| Spin restricted Kohn-Sham (RKS) calculation                            RKS
 DFT| Multiplicity                                                             1
 DFT| Number of spin states                                                    1
 DFT| Charge                                                                   0
 DFT| Self-interaction correction (SIC)                                       NO
 DFT| Cutoffs: density                                              1.000000E-10
 DFT|          gradient                                             1.000000E-10
 DFT|          tau                                                  1.000000E-10
 DFT|          cutoff_smoothing_range                               0.000000E+00
 DFT| XC density smoothing                                                  NONE
 DFT| XC derivatives                                                          PW

 FUNCTIONAL| PBE:
 FUNCTIONAL| J.P.Perdew, K.Burke, M.Ernzerhof, Phys. Rev. Letter, vol. 77, n 18,
 FUNCTIONAL|  pp. 3865-3868, (1996)sx=0.750sc=1.000{spin unpolarized}           


 QS| Method:                                                                GAPW
 QS| Density plane wave grid type                        NON-SPHERICAL FULLSPACE
 QS| Number of grid levels:                                                    4
 QS| Density cutoff [a.u.]:                                                250.0
 QS| Multi grid cutoff [a.u.]: 1) grid level                               250.0
 QS|                           2) grid level                                83.3
 QS|                           3) grid level                                27.8
 QS|                           4) grid level                                 9.3
 QS| Grid level progression factor:                                          3.0
 QS| Relative density cutoff [a.u.]:                                        50.0
 QS| Interaction thresholds: eps_pgf_orb:                                1.0E-12
 QS|                         eps_filter_matrix:                          0.0E+00
 QS|                         eps_core_charge:                            1.0E-14
 QS|                         eps_rho_gspace:                             1.0E-12
 QS|                         eps_rho_rspace:                             1.0E-12
 QS|                         eps_gvg_rspace:                             1.0E-06
 QS|                         eps_ppl:                                    1.0E-02
 QS|                         eps_ppnl:                                   1.0E-08
 QS| GAPW|      One center basis from orbital basis primitives
 QS| GAPW|                   eps_fit:                                    1.0E-04
 QS| GAPW|                   eps_iso:                                    1.0E-12
 QS| GAPW|                   eps_svd:                                    1.0E-08
 QS| GAPW|                   eps_cpc:                                    1.0E-12
 QS| GAPW|   atom-r-grid: quadrature:                                     GC_LOG
 QS| GAPW|      atom-s-grid:  max l :                                          4
 QS| GAPW|      max_l_rho0 :                                                   2


 ATOMIC KIND INFORMATION

  1. Atomic kind: B                                     Number of atoms:       1

     Orbital Basis Set                                               aug-cc-pVDZ

       Number of orbital shell sets:                                           6
       Number of orbital shells:                                               9
       Number of primitive Cartesian functions:                               17
       Number of Cartesian basis functions:                                   25
       Number of spherical basis functions:                                   23
       Norm type:                                                              2

       Normalised Cartesian orbitals:

                        Set   Shell   Orbital            Exponent    Coefficient

                          1       1    1px               0.023780       0.013311
                          1       1    1py               0.023780       0.013311
                          1       1    1pz               0.023780       0.013311

                          2       1    1s                0.031050       0.052718

                          3       1    1dx2              0.090400       0.024530
                          3       1    1dxy              0.090400       0.042488
                          3       1    1dxz              0.090400       0.042488
                          3       1    1dy2              0.090400       0.024530
                          3       1    1dyz              0.090400       0.042488
                          3       1    1dz2              0.090400       0.024530

                          4       1    1px               6.001000       0.475024
                                                         1.241000       0.369809
                                                         0.336400       0.184501
                                                         0.095380       0.036228
                          4       1    1py               6.001000       0.475024
                                                         1.241000       0.369809
                                                         0.336400       0.184501
                                                         0.095380       0.036228
                          4       1    1pz               6.001000       0.475024
                                                         1.241000       0.369809
                                                         0.336400       0.184501
                                                         0.095380       0.036228

                          4       2    2px               6.001000       0.000000
                                                         1.241000       0.000000
                                                         0.336400       0.000000
                                                         0.095380       0.075555
                          4       2    2py               6.001000       0.000000
                                                         1.241000       0.000000
                                                         0.336400       0.000000
                                                         0.095380       0.075555
                          4       2    2pz               6.001000       0.000000
                                                         1.241000       0.000000
                                                         0.336400       0.000000
                                                         0.095380       0.075555

                          5       1    1s             4570.000000       0.275713
                                                       685.900000       0.511332
                                                       156.500000       0.855677
                                                        44.470000       1.244265
                                                        14.480000       1.439274
                                                         5.131000       1.089508
                                                         1.898000       0.334360
                                                         0.332900       0.004474
                                                         0.104300      -0.000456

                          5       2    2s             4570.000000      -0.055063
                                                       685.900000      -0.104788
                                                       156.500000      -0.171678
                                                        44.470000      -0.268981
                                                        14.480000      -0.316105
                                                         5.131000      -0.337084
                                                         1.898000      -0.151530
                                                         0.332900       0.168522
                                                         0.104300       0.075968

                          5       3    3s             4570.000000       0.000000
                                                       685.900000       0.000000
                                                       156.500000       0.000000
                                                        44.470000       0.000000
                                                        14.480000       0.000000
                                                         5.131000       0.000000
                                                         1.898000       0.000000
                                                         0.332900       0.000000
                                                         0.104300       0.130805

                          6       1    1dx2              0.343000       0.253031
                          6       1    1dxy              0.343000       0.438263
                          6       1    1dxz              0.343000       0.438263
                          6       1    1dy2              0.343000       0.253031
                          6       1    1dyz              0.343000       0.438263
                          6       1    1dz2              0.343000       0.253031

     RI Auxiliary Basis Set                                    aug-cc-pVDZ-OPTRI

       Number of orbital shell sets:                                          17
       Number of orbital shells:                                              17
       Number of primitive Cartesian functions:                               17
       Number of Cartesian basis functions:                                   88
       Number of spherical basis functions:                                   69
       Norm type:                                                              2

       Normalised Cartesian orbitals:

                        Set   Shell   Orbital            Exponent    Coefficient

                          1       1    1px               0.050296       0.033951
                          1       1    1py               0.050296       0.033951
                          1       1    1pz               0.050296       0.033951

                          2       1    1s                0.056572       0.082673

                          3       1    1px               0.150012       0.133075
                          3       1    1py               0.150012       0.133075
                          3       1    1pz               0.150012       0.133075

                          4       1    1fx3              0.199135       0.038997
                          4       1    1fx2y             0.199135       0.087201
                          4       1    1fx2z             0.199135       0.087201
                          4       1    1fxy2             0.199135       0.087201
                          4       1    1fxyz             0.199135       0.151037
                          4       1    1fxz2             0.199135       0.087201
                          4       1    1fy3              0.199135       0.038997
                          4       1    1fy2z             0.199135       0.087201
                          4       1    1fyz2             0.199135       0.087201
                          4       1    1fz3              0.199135       0.038997

                          5       1    1dx2              0.228104       0.123920
                          5       1    1dxy              0.228104       0.214636
                          5       1    1dxz              0.228104       0.214636
                          5       1    1dy2              0.228104       0.123920
                          5       1    1dyz              0.228104       0.214636
                          5       1    1dz2              0.228104       0.123920

                          6       1    1s                0.309008       0.295384

                          7       1    1px               0.312340       0.332832
                          7       1    1py               0.312340       0.332832
                          7       1    1pz               0.312340       0.332832

                          8       1    1dx2              0.523825       0.530867
                          8       1    1dxy              0.523825       0.919488
                          8       1    1dxz              0.523825       0.919488
                          8       1    1dy2              0.523825       0.530867
                          8       1    1dyz              0.523825       0.919488
                          8       1    1dz2              0.523825       0.530867

                          9       1    1fx3              0.580150       0.432434
                          9       1    1fx2y             0.580150       0.966952
                          9       1    1fx2z             0.580150       0.966952
                          9       1    1fxy2             0.580150       0.966952
                          9       1    1fxyz             0.580150       1.674811
                          9       1    1fxz2             0.580150       0.966952
                          9       1    1fy3              0.580150       0.432434
                          9       1    1fy2z             0.580150       0.966952
                          9       1    1fyz2             0.580150       0.966952
                          9       1    1fz3              0.580150       0.432434

                         10       1    1gx4              0.624505       0.304901
                         10       1    1gx3y             0.624505       0.806693
                         10       1    1gx3z             0.624505       0.806693
                         10       1    1gx2y2            0.624505       1.041436
                         10       1    1gx2yz            0.624505       1.803820
                         10       1    1gx2z2            0.624505       1.041436
                         10       1    1gxy3             0.624505       0.806693
                         10       1    1gxy2z            0.624505       1.803820
                         10       1    1gxyz2            0.624505       1.803820
                         10       1    1gxz3             0.624505       0.806693
                         10       1    1gy4              0.624505       0.304901
                         10       1    1gy3z             0.624505       0.806693
                         10       1    1gy2z2            0.624505       1.041436
                         10       1    1gyz3             0.624505       0.806693
                         10       1    1gz4              0.624505       0.304901

                         11       1    1px               0.650325       0.832440
                         11       1    1py               0.650325       0.832440
                         11       1    1pz               0.650325       0.832440

                         12       1    1s                1.138224       0.785382

                         13       1    1px               1.354044       2.082002
                         13       1    1py               1.354044       2.082002
                         13       1    1pz               1.354044       2.082002

                         14       1    1dx2              1.406891       2.991336
                         14       1    1dxy              1.406891       5.181147
                         14       1    1dxz              1.406891       5.181147
                         14       1    1dy2              1.406891       2.991336
                         14       1    1dyz              1.406891       5.181147
                         14       1    1dz2              1.406891       2.991336

                         15       1    1fx3              1.679928       4.729971
                         15       1    1fx2y             1.679928      10.576536
                         15       1    1fx2z             1.679928      10.576536
                         15       1    1fxy2             1.679928      10.576536
                         15       1    1fxyz             1.679928      18.319098
                         15       1    1fxz2             1.679928      10.576536
                         15       1    1fy3              1.679928       4.729971
                         15       1    1fy2z             1.679928      10.576536
                         15       1    1fyz2             1.679928      10.576536
                         15       1    1fz3              1.679928       4.729971

                         16       1    1dx2              3.778629      16.855607
                         16       1    1dxy              3.778629      29.194768
                         16       1    1dxz              3.778629      29.194768
                         16       1    1dy2              3.778629      16.855607
                         16       1    1dyz              3.778629      29.194768
                         16       1    1dz2              3.778629      16.855607

                         17       1    1s                4.192619       2.088210

       Atomic covalent radius [Angstrom]:                                  0.820

       Atomic van der Waals radius [Angstrom]:                             1.920

     The atoms of this atomic kind are PAW atoms (GAPW):
       Hard Gaussian function radius:                                      1.512
       Rho0 radius:                                                        1.512
       Maximum GTO radius used for PAW projector construction:            24.566

     GAPW Soft Basis Set                                        aug-cc-pVDZ_soft

       Number of orbital shell sets:                                           6
       Number of orbital shells:                                               9
       Number of primitive Cartesian functions:                               10
       Number of Cartesian basis functions:                                   25
       Number of spherical basis functions:                                   23
       Norm type:                                                              2

       Normalised Cartesian orbitals:

                        Set   Shell   Orbital            Exponent    Coefficient

                          1       1    1px               0.023780       0.013311
                          1       1    1py               0.023780       0.013311
                          1       1    1pz               0.023780       0.013311

                          2       1    1s                0.031050       0.052718

                          3       1    1dx2              0.090400       0.024530
                          3       1    1dxy              0.090400       0.042488
                          3       1    1dxz              0.090400       0.042488
                          3       1    1dy2              0.090400       0.024530
                          3       1    1dyz              0.090400       0.042488
                          3       1    1dz2              0.090400       0.024530

                          4       1    1px               1.241000       0.369809
                                                         0.336400       0.184501
                                                         0.095380       0.036228
                          4       1    1py               1.241000       0.369809
                                                         0.336400       0.184501
                                                         0.095380       0.036228
                          4       1    1pz               1.241000       0.369809
                                                         0.336400       0.184501
                                                         0.095380       0.036228

                          4       2    2px               1.241000       0.000000
                                                         0.336400       0.000000
                                                         0.095380       0.075555
                          4       2    2py               1.241000       0.000000
                                                         0.336400       0.000000
                                                         0.095380       0.075555
                          4       2    2pz               1.241000       0.000000
                                                         0.336400       0.000000
                                                         0.095380       0.075555

                          5       1    1s                1.898000       0.334360
                                                         0.332900       0.004474
                                                         0.104300      -0.000456

                          5       2    2s                1.898000      -0.151530
                                                         0.332900       0.168522
                                                         0.104300       0.075968

                          5       3    3s                1.898000       0.000000
                                                         0.332900       0.000000
                                                         0.104300       0.130805

                          6       1    1dx2              0.343000       0.253031
                          6       1    1dxy              0.343000       0.438263
                          6       1    1dxz              0.343000       0.438263
                          6       1    1dy2              0.343000       0.253031
                          6       1    1dyz              0.343000       0.438263
                          6       1    1dz2              0.343000       0.253031

     AE Potential information for                                            ALL

       Description:                                       All-electron potential
                                          Krack, Parrinello, PCCP 2, 2105 (2000)

       Gaussian exponent of the core charge distribution:               2.655410
       Electronic configuration (s p d ...):                           4   1   0

  2. Atomic kind: N                                     Number of atoms:       1

     Orbital Basis Set                                               aug-cc-pVDZ

       Number of orbital shell sets:                                           6
       Number of orbital shells:                                               9
       Number of primitive Cartesian functions:                               17
       Number of Cartesian basis functions:                                   25
       Number of spherical basis functions:                                   23
       Norm type:                                                              2

       Normalised Cartesian orbitals:

                        Set   Shell   Orbital            Exponent    Coefficient

                          1       1    1px               0.056110       0.038926
                          1       1    1py               0.056110       0.038926
                          1       1    1pz               0.056110       0.038926

                          2       1    1s                0.061240       0.087738

                          3       1    1px              13.550000       1.479258
                                                         2.917000       1.180072
                                                         0.797300       0.548036
                                                         0.218500       0.098423
                          3       1    1py              13.550000       1.479258
                                                         2.917000       1.180072
                                                         0.797300       0.548036
                                                         0.218500       0.098423
                          3       1    1pz              13.550000       1.479258
                                                         2.917000       1.180072
                                                         0.797300       0.548036
                                                         0.218500       0.098423

                          3       2    2px              13.550000       0.000000
                                                         2.917000       0.000000
                                                         0.797300       0.000000
                                                         0.218500       0.212939
                          3       2    2py              13.550000       0.000000
                                                         2.917000       0.000000
                                                         0.797300       0.000000
                                                         0.218500       0.212939
                          3       2    2pz              13.550000       0.000000
                                                         2.917000       0.000000
                                                         0.797300       0.000000
                                                         0.218500       0.212939

                          4       1    1s             9046.000000       0.462754
                                                      1357.000000       0.858723
                                                       309.300000       1.440591
                                                        87.730000       2.108533
                                                        28.560000       2.454153
                                                        10.210000       1.825915
                                                         3.838000       0.543758
                                                         0.746600       0.008838
                                                         0.224800      -0.000666

                          4       2    2s             9046.000000      -0.101145
                                                      1357.000000      -0.192492
                                                       309.300000      -0.314968
                                                        87.730000      -0.501437
                                                        28.560000      -0.593976
                                                        10.210000      -0.643503
                                                         3.838000      -0.238093
                                                         0.746600       0.314268
                                                         0.224800       0.134678

                          4       3    3s             9046.000000       0.000000
                                                      1357.000000       0.000000
                                                       309.300000       0.000000
                                                        87.730000       0.000000
                                                        28.560000       0.000000
                                                        10.210000       0.000000
                                                         3.838000       0.000000
                                                         0.746600       0.000000
                                                         0.224800       0.232679

                          5       1    1dx2              0.230000       0.125728
                          5       1    1dxy              0.230000       0.217768
                          5       1    1dxz              0.230000       0.217768
                          5       1    1dy2              0.230000       0.125728
                          5       1    1dyz              0.230000       0.217768
                          5       1    1dz2              0.230000       0.125728

                          6       1    1dx2              0.817000       1.155575
                          6       1    1dxy              0.817000       2.001514
                          6       1    1dxz              0.817000       2.001514
                          6       1    1dy2              0.817000       1.155575
                          6       1    1dyz              0.817000       2.001514
                          6       1    1dz2              0.817000       1.155575

     RI Auxiliary Basis Set                                    aug-cc-pVDZ-OPTRI

       Number of orbital shell sets:                                          17
       Number of orbital shells:                                              17
       Number of primitive Cartesian functions:                               17
       Number of Cartesian basis functions:                                   88
       Number of spherical basis functions:                                   69
       Norm type:                                                              2

       Normalised Cartesian orbitals:

                        Set   Shell   Orbital            Exponent    Coefficient

                          1       1    1s                0.091449       0.118521

                          2       1    1px               0.115183       0.095648
                          2       1    1py               0.115183       0.095648
                          2       1    1pz               0.115183       0.095648

                          3       1    1px               0.322548       0.346484
                          3       1    1py               0.322548       0.346484
                          3       1    1pz               0.322548       0.346484

                          4       1    1dx2              0.422464       0.364369
                          4       1    1dxy              0.422464       0.631106
                          4       1    1dxz              0.422464       0.631106
                          4       1    1dy2              0.422464       0.364369
                          4       1    1dyz              0.422464       0.631106
                          4       1    1dz2              0.422464       0.364369

                          5       1    1fx3              0.510986       0.324994
                          5       1    1fx2y             0.510986       0.726708
                          5       1    1fx2z             0.510986       0.726708
                          5       1    1fxy2             0.510986       0.726708
                          5       1    1fxyz             0.510986       1.258694
                          5       1    1fxz2             0.510986       0.726708
                          5       1    1fy3              0.510986       0.324994
                          5       1    1fy2z             0.510986       0.726708
                          5       1    1fyz2             0.510986       0.726708
                          5       1    1fz3              0.510986       0.324994

                          6       1    1px               0.679523       0.879418
                          6       1    1py               0.679523       0.879418
                          6       1    1pz               0.679523       0.879418

                          7       1    1s                0.726628       0.560911

                          8       1    1fx3              1.397681       3.126962
                          8       1    1fx2y             1.397681       6.992099
                          8       1    1fx2z             1.397681       6.992099
                          8       1    1fxy2             1.397681       6.992099
                          8       1    1fxyz             1.397681      12.110671
                          8       1    1fxz2             1.397681       6.992099
                          8       1    1fy3              1.397681       3.126962
                          8       1    1fy2z             1.397681       6.992099
                          8       1    1fyz2             1.397681       6.992099
                          8       1    1fz3              1.397681       3.126962

                          9       1    1px               1.431573       2.232066
                          9       1    1py               1.431573       2.232066
                          9       1    1pz               1.431573       2.232066

                         10       1    1gx4              1.484177       3.296257
                         10       1    1gx3y             1.484177       8.721077
                         10       1    1gx3z             1.484177       8.721077
                         10       1    1gx2y2            1.484177      11.258862
                         10       1    1gx2yz            1.484177      19.500921
                         10       1    1gx2z2            1.484177      11.258862
                         10       1    1gxy3             1.484177       8.721077
                         10       1    1gxy2z            1.484177      19.500921
                         10       1    1gxyz2            1.484177      19.500921
                         10       1    1gxz3             1.484177       8.721077
                         10       1    1gy4              1.484177       3.296257
                         10       1    1gy3z             1.484177       8.721077
                         10       1    1gy2z2            1.484177      11.258862
                         10       1    1gyz3             1.484177       8.721077
                         10       1    1gz4              1.484177       3.296257

                         11       1    1dx2              1.846235       4.812954
                         11       1    1dxy              1.846235       8.336280
                         11       1    1dxz              1.846235       8.336280
                         11       1    1dy2              1.846235       4.812954
                         11       1    1dyz              1.846235       8.336280
                         11       1    1dz2              1.846235       4.812954

                         12       1    1s                2.651372       1.480857

                         13       1    1px               3.015942       5.665247
                         13       1    1py               3.015942       5.665247
                         13       1    1pz               3.015942       5.665247

                         14       1    1dx2              3.588066      15.396259
                         14       1    1dxy              3.588066      26.667102
                         14       1    1dxz              3.588066      26.667102
                         14       1    1dy2              3.588066      15.396259
                         14       1    1dyz              3.588066      26.667102
                         14       1    1dz2              3.588066      15.396259

                         15       1    1fx3              4.092837      35.075951
                         15       1    1fx2y             4.092837      78.432212
                         15       1    1fx2z             4.092837      78.432212
                         15       1    1fxy2             4.092837      78.432212
                         15       1    1fxyz             4.092837     135.848576
                         15       1    1fxz2             4.092837      78.432212
                         15       1    1fy3              4.092837      35.075951
                         15       1    1fy2z             4.092837      78.432212
                         15       1    1fyz2             4.092837      78.432212
                         15       1    1fz3              4.092837      35.075951

                         16       1    1dx2              6.973227      49.251404
                         16       1    1dxy              6.973227      85.305933
                         16       1    1dxz              6.973227      85.305933
                         16       1    1dy2              6.973227      49.251404
                         16       1    1dyz              6.973227      85.305933
                         16       1    1dz2              6.973227      49.251404

                         17       1    1s                9.674522       3.909599

       Atomic covalent radius [Angstrom]:                                  0.750

       Atomic van der Waals radius [Angstrom]:                             1.550

     The atoms of this atomic kind are PAW atoms (GAPW):
       Hard Gaussian function radius:                                      1.512
       Rho0 radius:                                                        1.512
       Maximum GTO radius used for PAW projector construction:            24.566

     GAPW Soft Basis Set                                        aug-cc-pVDZ_soft

       Number of orbital shell sets:                                           6
       Number of orbital shells:                                               9
       Number of primitive Cartesian functions:                               10
       Number of Cartesian basis functions:                                   25
       Number of spherical basis functions:                                   23
       Norm type:                                                              2

       Normalised Cartesian orbitals:

                        Set   Shell   Orbital            Exponent    Coefficient

                          1       1    1px               0.056110       0.038926
                          1       1    1py               0.056110       0.038926
                          1       1    1pz               0.056110       0.038926

                          2       1    1s                0.061240       0.087738

                          3       1    1px               2.917000       1.180072
                                                         0.797300       0.548036
                                                         0.218500       0.098423
                          3       1    1py               2.917000       1.180072
                                                         0.797300       0.548036
                                                         0.218500       0.098423
                          3       1    1pz               2.917000       1.180072
                                                         0.797300       0.548036
                                                         0.218500       0.098423

                          3       2    2px               2.917000       0.000000
                                                         0.797300       0.000000
                                                         0.218500       0.212939
                          3       2    2py               2.917000       0.000000
                                                         0.797300       0.000000
                                                         0.218500       0.212939
                          3       2    2pz               2.917000       0.000000
                                                         0.797300       0.000000
                                                         0.218500       0.212939

                          4       1    1s                3.838000       0.543758
                                                         0.746600       0.008838
                                                         0.224800      -0.000666

                          4       2    2s                3.838000      -0.238093
                                                         0.746600       0.314268
                                                         0.224800       0.134678

                          4       3    3s                3.838000       0.000000
                                                         0.746600       0.000000
                                                         0.224800       0.232679

                          5       1    1dx2              0.230000       0.125728
                          5       1    1dxy              0.230000       0.217768
                          5       1    1dxz              0.230000       0.217768
                          5       1    1dy2              0.230000       0.125728
                          5       1    1dyz              0.230000       0.217768
                          5       1    1dz2              0.230000       0.125728

                          6       1    1dx2              0.817000       1.155575
                          6       1    1dxy              0.817000       2.001514
                          6       1    1dxz              0.817000       2.001514
                          6       1    1dy2              0.817000       1.155575
                          6       1    1dyz              0.817000       2.001514
                          6       1    1dz2              0.817000       1.155575

     AE Potential information for                                            ALL

       Description:                                       All-electron potential
                                          Krack, Parrinello, PCCP 2, 2105 (2000)

       Gaussian exponent of the core charge distribution:               5.979100
       Electronic configuration (s p d ...):                           4   3   0


 MOLECULE KIND INFORMATION


 All atoms are their own molecule, skipping detailed information


 TOTAL NUMBERS AND MAXIMUM NUMBERS

  Total number of            - Atomic kinds:                                   2
                             - Atoms:                                          2
                             - Shell sets:                                    12
                             - Shells:                                        18
                             - Primitive Cartesian functions:                 34
                             - Cartesian basis functions:                     50
                             - Spherical basis functions:                     46

  Maximum angular momentum of the orbital basis functions:                     2


 MODULE QUICKSTEP: ATOMIC COORDINATES IN ANGSTROM

   Atom Kind Element         X             Y             Z       Z(eff)     Mass
      1    1 B     5     14.358500     15.000000     15.000000   5.0000  10.8110
      2    2 N     7     15.641500     15.000000     15.000000   7.0000  14.0067



 SCF PARAMETERS         Density guess:                                    ATOMIC
                        --------------------------------------------------------
                        max_scf:                                             500
                        max_scf_history:                                       0
                        max_diis:                                              4
                        --------------------------------------------------------
                        eps_scf:                                        1.00E-06
                        eps_scf_history:                                0.00E+00
                        eps_diis:                                       1.00E-01
                        eps_eigval:                                     1.00E-05
                        --------------------------------------------------------
                        level_shift [a.u.]:                             0.000000
                        added MOs                                        40    0
                        --------------------------------------------------------
                        Mixing method:                            BROYDEN_MIXING
                                                charge density mixing in g-space
                        --------------------------------------------------------
                        No outer SCF

 PW_GRID| Information for grid number                                          1
 PW_GRID| Grid distributed over                                    24 processors
 PW_GRID| Real space group dimensions                                    24    1
 PW_GRID| the grid is blocked:                                                NO
 PW_GRID| Cutoff [a.u.]                                                    250.0
 PW_GRID| spherical cutoff:                                                   NO
 PW_GRID|   Bounds   1           -202     202                Points:         405
 PW_GRID|   Bounds   2           -202     202                Points:         405
 PW_GRID|   Bounds   3           -202     202                Points:         405
 PW_GRID| Volume element (a.u.^3)  0.2743E-02     Volume (a.u.^3)    182205.0337
 PW_GRID| Grid span                                                    FULLSPACE
 PW_GRID|   Distribution                         Average         Max         Min
 PW_GRID|   G-Vectors                          2767921.9     2768175     2767770
 PW_GRID|   G-Rays                                6834.4        6835        6834
 PW_GRID|   Real Space Points                  2767921.9     2788425     2624400

 PW_GRID| Information for grid number                                          2
 PW_GRID| Number of the reference grid                                         1
 PW_GRID| Grid distributed over                                    24 processors
 PW_GRID| Real space group dimensions                                    24    1
 PW_GRID| the grid is blocked:                                                NO
 PW_GRID| Cutoff [a.u.]                                                     83.3
 PW_GRID| spherical cutoff:                                                   NO
 PW_GRID|   Bounds   1           -120     119                Points:         240
 PW_GRID|   Bounds   2           -120     119                Points:         240
 PW_GRID|   Bounds   3           -120     119                Points:         240
 PW_GRID| Volume element (a.u.^3)  0.1318E-01     Volume (a.u.^3)    182205.0337
 PW_GRID| Grid span                                                    FULLSPACE
 PW_GRID|   Distribution                         Average         Max         Min
 PW_GRID|   G-Vectors                           576000.0      576240      575760
 PW_GRID|   G-Rays                                2400.0        2401        2399
 PW_GRID|   Real Space Points                   576000.0      576000      576000

 PW_GRID| Information for grid number                                          3
 PW_GRID| Number of the reference grid                                         1
 PW_GRID| Grid distributed over                                    24 processors
 PW_GRID| Real space group dimensions                                    24    1
 PW_GRID| the grid is blocked:                                                NO
 PW_GRID| Cutoff [a.u.]                                                     27.8
 PW_GRID| spherical cutoff:                                                   NO
 PW_GRID|   Bounds   1            -67      67                Points:         135
 PW_GRID|   Bounds   2            -67      67                Points:         135
 PW_GRID|   Bounds   3            -67      67                Points:         135
 PW_GRID| Volume element (a.u.^3)  0.7406E-01     Volume (a.u.^3)    182205.0337
 PW_GRID| Grid span                                                    FULLSPACE
 PW_GRID|   Distribution                         Average         Max         Min
 PW_GRID|   G-Vectors                           102515.6      102735      102330
 PW_GRID|   G-Rays                                 759.4         761         758
 PW_GRID|   Real Space Points                   102515.6      109350       91125

 PW_GRID| Information for grid number                                          4
 PW_GRID| Number of the reference grid                                         1
 PW_GRID| Grid distributed over                                    24 processors
 PW_GRID| Real space group dimensions                                    24    1
 PW_GRID| the grid is blocked:                                                NO
 PW_GRID| Cutoff [a.u.]                                                      9.3
 PW_GRID| spherical cutoff:                                                   NO
 PW_GRID|   Bounds   1            -40      39                Points:          80
 PW_GRID|   Bounds   2            -40      39                Points:          80
 PW_GRID|   Bounds   3            -40      39                Points:          80
 PW_GRID| Volume element (a.u.^3)  0.3559         Volume (a.u.^3)    182205.0337
 PW_GRID| Grid span                                                    FULLSPACE
 PW_GRID|   Distribution                         Average         Max         Min
 PW_GRID|   G-Vectors                            21333.3       21360       21280
 PW_GRID|   G-Rays                                 266.7         267         266
 PW_GRID|   Real Space Points                    21333.3       25600       19200

 POISSON| Solver                                                         WAVELET
 POISSON| Wavelet| Scaling function                                           40
 POISSON| Periodicity                                                       NONE

 RS_GRID| Information for grid number                                          1
 RS_GRID|   Bounds   1           -202     202                Points:         405
 RS_GRID|   Bounds   2           -202     202                Points:         405
 RS_GRID|   Bounds   3           -202     202                Points:         405
 RS_GRID| Real space distribution over                                  4 groups
 RS_GRID| Real space distribution along direction                              2
 RS_GRID| Border size                                                         33
 RS_GRID| Real space distribution over                                  6 groups
 RS_GRID| Real space distribution along direction                              3
 RS_GRID| Border size                                                         33
 RS_GRID|   Distribution                         Average         Max         Min
 RS_GRID|   Planes                                 167.2         168         167
 RS_GRID|   Distribution                         Average         Max         Min
 RS_GRID|   Planes                                 133.5         134         133

 RS_GRID| Information for grid number                                          2
 RS_GRID|   Bounds   1           -120     119                Points:         240
 RS_GRID|   Bounds   2           -120     119                Points:         240
 RS_GRID|   Bounds   3           -120     119                Points:         240
 RS_GRID| Real space distribution over                                  4 groups
 RS_GRID| Real space distribution along direction                              2
 RS_GRID| Border size                                                         37
 RS_GRID| Real space distribution over                                  6 groups
 RS_GRID| Real space distribution along direction                              3
 RS_GRID| Border size                                                         37
 RS_GRID|   Distribution                         Average         Max         Min
 RS_GRID|   Planes                                 134.0         134         134
 RS_GRID|   Distribution                         Average         Max         Min
 RS_GRID|   Planes                                 114.0         114         114

 RS_GRID| Information for grid number                                          3
 RS_GRID|   Bounds   1            -67      67                Points:         135
 RS_GRID|   Bounds   2            -67      67                Points:         135
 RS_GRID|   Bounds   3            -67      67                Points:         135
 RS_GRID| Real space fully replicated
 RS_GRID| Group size                                                           1

 RS_GRID| Information for grid number                                          4
 RS_GRID|   Bounds   1            -40      39                Points:          80
 RS_GRID|   Bounds   2            -40      39                Points:          80
 RS_GRID|   Bounds   3            -40      39                Points:          80
 RS_GRID| Real space fully replicated
 RS_GRID| Group size                                                           1

  HFX_INFO| Replica ID:                                                        1
  HFX_INFO| FRACTION:                                               0.2500000000
  HFX_INFO| Interaction Potential:                                       COULOMB
  HFX_INFO| EPS_SCHWARZ:                                                 1.0E-10
  HFX_INFO| EPS_SCHWARZ_FORCES                                           1.0E-08
  HFX_INFO| EPS_STORAGE_SCALING:                                         1.0E+00
  HFX_INFO| NBINS:                                                            64
  HFX_INFO| BLOCK_SIZE:                                                        1
  HFX_INFO| Number of periodic shells considered:                           NONE
  HFX_INFO| Number of periodic cells considered:                            NONE

 
 RI-RPA| using GPW style
 

 OVERLAP MATRIX CONDITION NUMBER
 1-Norm Condition Number (Estimate)
   CN : |A|*|A^-1|:  6.955E+000 *  7.116E+002   = 4.949E+003  Log(1-CN):  3.6945
 1-Norm and 2-Norm Condition Numbers using Diagonalization
   CN : |A|*|A^-1|:  6.955E+000 *  7.116E+002   = 4.949E+003  Log(1-CN):  3.6945
   CN : max/min ev:  4.851E+000 /  2.436E-003   = 1.991E+003  Log(2-CN):  3.2991

 Number of electrons:                                                         12
 Number of occupied orbitals:                                                  6
 Number of molecular orbitals:                                                46

 Number of orbital functions:                                                 46
 Number of independent orbital functions:                                     46

 Extrapolation method: initial_guess

 Atomic guess: The first density matrix is obtained in terms of atomic orbitals
               and electronic configurations assigned to each atomic kind

 Guess for atomic kind: B

 Electronic structure
    Total number of core electrons                                          0.00
    Total number of valence electrons                                       5.00
    Total number of electrons                                               5.00
    Multiplicity                                                   not specified
    S      2.00  2.00
    P      1.00


 *******************************************************************************
                  Iteration          Convergence                     Energy [au]
 *******************************************************************************
                          1        0.460359E-01                 -24.334985930574
                          2        0.205214E-01                 -24.337140561715
                          3        0.117435E-02                 -24.337989566848
                          4        0.175895E-04                 -24.337991674331
                          5        0.596531E-07                 -24.337991674739

 Energy components [Hartree]           Total Energy ::          -24.337991674739
                                        Band Energy ::          -13.931958661609
                                     Kinetic Energy ::           24.427852794124
                                   Potential Energy ::          -48.765844468863
                                      Virial (-V/T) ::            1.996321366428
                                        Core Energy ::          -32.323145461531
                                          XC Energy ::           -3.540020579852
                                     Coulomb Energy ::           11.525174366644

 Orbital energies  State     L     Occupation   Energy[a.u.]          Energy[eV]

                       1     0          2.000      -6.552602         -178.305360
                       2     0          2.000      -0.345371           -9.398013

                       1     1          1.000      -0.136014           -3.701130


 Total Electron Density at R=0:                                        68.786961

 Guess for atomic kind: N

 Electronic structure
    Total number of core electrons                                          0.00
    Total number of valence electrons                                       7.00
    Total number of electrons                                               7.00
    Multiplicity                                                   not specified
    S      2.00  2.00
    P      3.00


 *******************************************************************************
                  Iteration          Convergence                     Energy [au]
 *******************************************************************************
                          1        0.324015                     -53.962160635180
                          2        0.303793                     -53.968191480532
                          3        0.419977E-02                 -54.007027300491
                          4        0.499184E-03                 -54.007041130238
                          5        0.777606E-05                 -54.007041218366
                          6        0.741085E-07                 -54.007041218391

 Energy components [Hartree]           Total Energy ::          -54.007041218391
                                        Band Energy ::          -30.179796805617
                                     Kinetic Energy ::           54.022800604949
                                   Potential Energy ::         -108.029841823340
                                      Virial (-V/T) ::            1.999708282681
                                        Core Energy ::          -73.637352250568
                                          XC Energy ::           -6.149267785012
                                     Coulomb Energy ::           25.779578817189

 Orbital energies  State     L     Occupation   Energy[a.u.]          Energy[eV]

                       1     0          2.000     -14.015075         -381.369581
                       2     0          2.000      -0.677390          -18.432723

                       1     1          3.000      -0.264956           -7.209809


 Total Electron Density at R=0:                                       197.076012
 Re-scaling the density matrix to get the right number of electrons
                  # Electrons              Trace(P)               Scaling factor
                           12                12.000                        1.000


 SCF WAVEFUNCTION OPTIMIZATION

  Step     Update method      Time    Convergence         Total energy    Change
  ------------------------------------------------------------------------------

  HFX_MEM_INFO| Est. max. program size before HFX [MiB]:                    2140
  HFX_MEM_INFO| Number of cart. primitive ERI's calculated:             10839060
  HFX_MEM_INFO| Number of sph. ERI's calculated:                         1679046
  HFX_MEM_INFO| Number of sph. ERI's stored in-core:                     1679046
  HFX_MEM_INFO| Number of sph. ERI's stored on disk:                           0
  HFX_MEM_INFO| Number of sph. ERI's calculated on the fly:                    0
  HFX_MEM_INFO| Total memory consumption ERI's RAM [MiB]:                      7
  HFX_MEM_INFO| Whereof max-vals [MiB]:                                        1
  HFX_MEM_INFO| Total compression factor ERI's RAM:                         2.05
  HFX_MEM_INFO| Total memory consumption ERI's disk [MiB]:                     0
  HFX_MEM_INFO| Total compression factor ERI's disk:                        0.00
  HFX_MEM_INFO| Size of density/Fock matrix [MiB]:                             0
  HFX_MEM_INFO| Size of buffers [MiB]:                                         0
  HFX_MEM_INFO| Est. max. program size after HFX  [MiB]:                    2647

     1 NoMix/Diag. 0.10E+00    7.7     1.21030824       -79.4366943957 -7.94E+01
     2 Broy./Diag. 0.10E+00    4.8     0.15182194       -77.8192355420  1.62E+00
     3 Broy./Diag. 0.10E+00    4.9     0.24502666       -77.3775523800  4.42E-01
     4 Broy./Diag. 0.10E+00    4.8     0.44921052       -77.2992642687  7.83E-02
     5 Broy./Diag. 0.10E+00    5.0     0.15847729       -78.5160636490 -1.22E+00
     6 Broy./Diag. 0.10E+00    4.9     0.16814699       -78.6027571060 -8.67E-02
     7 Broy./Diag. 0.10E+00    5.0     0.29562351       -78.2321189413  3.71E-01
     8 Broy./Diag. 0.10E+00    5.1     0.30602822       -79.0392505550 -8.07E-01
     9 Broy./Diag. 0.10E+00    5.2     0.20727283       -79.6354572851 -5.96E-01
    10 Broy./Diag. 0.10E+00    5.3     0.22690885       -79.9037524704 -2.68E-01
    11 Broy./Diag. 0.10E+00    5.3     0.16276228       -80.1364127038 -2.33E-01
    12 Broy./Diag. 0.10E+00    5.3     0.10804747       -80.2127104255 -7.63E-02
    13 Broy./Diag. 0.10E+00    5.3     0.06730438       -80.2659842696 -5.33E-02
    14 Broy./Diag. 0.10E+00    5.3     0.08942570       -80.2520159795  1.40E-02
    15 Broy./Diag. 0.10E+00    5.3     0.07781936       -80.1041290824  1.48E-01
    16 Broy./Diag. 0.10E+00    5.3     0.08822068       -79.9886338636  1.15E-01
    17 Broy./Diag. 0.10E+00    5.3     0.06157452       -80.1978675136 -2.09E-01
    18 Broy./Diag. 0.10E+00    5.3     0.39667010       -79.9701464326  2.28E-01
    19 Broy./Diag. 0.10E+00    5.2     0.32604895       -79.2295061752  7.41E-01
    20 Broy./Diag. 0.10E+00    5.3     0.15824627       -78.9122016801  3.17E-01
    21 Broy./Diag. 0.10E+00    5.3     0.22363609       -79.3241005993 -4.12E-01
    22 Broy./Diag. 0.10E+00    5.4     0.21749799       -79.8382811519 -5.14E-01
    23 Broy./Diag. 0.10E+00    5.3     0.28259021       -80.1218933422 -2.84E-01
    24 Broy./Diag. 0.10E+00    5.3     0.18149486       -80.5197059468 -3.98E-01
    25 Broy./Diag. 0.10E+00    5.3     0.04789709       -80.6802280325 -1.61E-01
    26 Broy./Diag. 0.10E+00    5.3     0.03335478       -80.6460488302  3.42E-02
    27 Broy./Diag. 0.10E+00    5.3     0.09143588       -80.6175029408  2.85E-02
    28 Broy./Diag. 0.10E+00    5.3     0.11391244       -80.4083092431  2.09E-01
    29 Broy./Diag. 0.10E+00    5.3     0.05258788       -80.2223859880  1.86E-01
    30 Broy./Diag. 0.10E+00    5.3     0.17417079       -80.2383006165 -1.59E-02
    31 Broy./Diag. 0.10E+00    5.2     0.63279769       -79.7622806910  4.76E-01
    32 Broy./Diag. 0.10E+00    5.3     0.14168472       -78.7130762850  1.05E+00
    33 Broy./Diag. 0.10E+00    5.3     0.11832807       -78.9860274024 -2.73E-01
    34 Broy./Diag. 0.10E+00    5.3     0.01837273       -79.2417593785 -2.56E-01
    35 Broy./Diag. 0.10E+00    5.4     0.04999247       -79.2375395503  4.22E-03
    36 Broy./Diag. 0.10E+00    5.3     0.04098124       -79.3392716529 -1.02E-01
    37 Broy./Diag. 0.10E+00    5.3     0.01222614       -79.3909790632 -5.17E-02
    38 Broy./Diag. 0.10E+00    5.3     0.01675578       -79.3908756340  1.03E-04
    39 Broy./Diag. 0.10E+00    5.3     0.09807691       -79.3754645323  1.54E-02
    40 Broy./Diag. 0.10E+00    5.3     0.15968104       -79.5799444024 -2.04E-01
    41 Broy./Diag. 0.10E+00    5.3     0.17122583       -79.8355594544 -2.56E-01
    42 Broy./Diag. 0.10E+00    5.3     0.10265719       -80.0016614944 -1.66E-01
    43 Broy./Diag. 0.10E+00    5.3     0.15962837       -80.0480731405 -4.64E-02
    44 Broy./Diag. 0.10E+00    5.3     0.11938015       -80.2839016480 -2.36E-01
    45 Broy./Diag. 0.10E+00    5.4     0.12047168       -80.3623698360 -7.85E-02
    46 Broy./Diag. 0.10E+00    5.3     0.03264678       -80.1776497564  1.85E-01
    47 Broy./Diag. 0.10E+00    5.3     0.10324526       -80.1951843679 -1.75E-02
    48 Broy./Diag. 0.10E+00    5.3     0.10859023       -79.9848781952  2.10E-01
    49 Broy./Diag. 0.10E+00    5.4     0.30327343       -79.7694221603  2.15E-01
    50 Broy./Diag. 0.10E+00    5.3     0.38764382       -79.2743425007  4.95E-01
    51 Broy./Diag. 0.10E+00    5.3     0.13067747       -78.7261106040  5.48E-01
    52 Broy./Diag. 0.10E+00    5.3     0.04568421       -78.7425802343 -1.65E-02
    53 Broy./Diag. 0.10E+00    5.3     0.13412078       -78.7772384408 -3.47E-02
    54 Broy./Diag. 0.10E+00    5.3     0.04907057       -78.5903314807  1.87E-01
    55 Broy./Diag. 0.10E+00    5.3     0.01524074       -78.5550365540  3.53E-02
    56 Broy./Diag. 0.10E+00    5.3     0.02546576       -78.5691491194 -1.41E-02
    57 Broy./Diag. 0.10E+00    5.3     0.05983014       -78.5254585580  4.37E-02
    58 Broy./Diag. 0.10E+00    5.4     0.07834336       -78.6549486683 -1.29E-01
    59 Broy./Diag. 0.10E+00    5.3     0.10383373       -78.8045462402 -1.50E-01
    60 Broy./Diag. 0.10E+00    5.3     0.16959265       -78.9988971840 -1.94E-01
    61 Broy./Diag. 0.10E+00    5.3     0.05123959       -79.2838256964 -2.85E-01
    62 Broy./Diag. 0.10E+00    5.3     0.15172353       -79.2747000585  9.13E-03
    63 Broy./Diag. 0.10E+00    5.3     0.02637420       -78.9795953222  2.95E-01
    64 Broy./Diag. 0.10E+00    5.3     0.04341545       -79.0354094325 -5.58E-02
    65 Broy./Diag. 0.10E+00    5.3     0.01961290       -79.1335133332 -9.81E-02
    66 Broy./Diag. 0.10E+00    5.4     0.03037070       -79.1601393557 -2.66E-02
    67 Broy./Diag. 0.10E+00    5.3     0.02774127       -79.1923539472 -3.22E-02
    68 Broy./Diag. 0.10E+00    5.3     0.01501518       -79.2086777665 -1.63E-02
    69 Broy./Diag. 0.10E+00    5.3     0.05187593       -79.2192061837 -1.05E-02
    70 Broy./Diag. 0.10E+00    5.3     0.01793617       -79.3058917932 -8.67E-02
    71 Broy./Diag. 0.10E+00    5.4     0.04134627       -79.3061738684 -2.82E-04
    72 Broy./Diag. 0.10E+00    5.3     0.03736005       -79.2154034458  9.08E-02
    73 Broy./Diag. 0.10E+00    5.4     0.02482932       -79.1599230594  5.55E-02
    74 Broy./Diag. 0.10E+00    5.3     0.00773566       -79.1383317801  2.16E-02
    75 Broy./Diag. 0.10E+00    5.3     0.00312650       -79.1414807054 -3.15E-03
    76 Broy./Diag. 0.10E+00    5.3     0.00853154       -79.1543314325 -1.29E-02
    77 Broy./Diag. 0.10E+00    5.3     0.00368297       -79.1640383033 -9.71E-03
    78 Broy./Diag. 0.10E+00    5.3     0.01851340       -79.1702418502 -6.20E-03
    79 Broy./Diag. 0.10E+00    5.3     0.01454407       -79.1387491885  3.15E-02
    80 Broy./Diag. 0.10E+00    5.3     0.01758358       -79.1152154872  2.35E-02
    81 Broy./Diag. 0.10E+00    5.3     0.01894014       -79.0874632463  2.78E-02
    82 Broy./Diag. 0.10E+00    5.4     0.01368111       -79.0595008694  2.80E-02
    83 Broy./Diag. 0.10E+00    5.3     0.04604752       -79.0452301318  1.43E-02
    84 Broy./Diag. 0.10E+00    5.3     0.05339725       -79.1333086929 -8.81E-02
    85 Broy./Diag. 0.10E+00    5.3     0.03221904       -79.2139083936 -8.06E-02
    86 Broy./Diag. 0.10E+00    5.3     0.01078378       -79.2473716665 -3.35E-02
    87 Broy./Diag. 0.10E+00    5.3     0.01606827       -79.2433161624  4.06E-03
    88 Broy./Diag. 0.10E+00    5.3     0.00706869       -79.2060693014  3.72E-02
    89 Broy./Diag. 0.10E+00    5.3     0.05611502       -79.1980076424  8.06E-03
    90 Broy./Diag. 0.10E+00    5.3     0.05839780       -79.3094972803 -1.11E-01
    91 Broy./Diag. 0.10E+00    5.3     0.03079785       -79.3996412381 -9.01E-02
    92 Broy./Diag. 0.10E+00    5.3     0.02111433       -79.4212436792 -2.16E-02
    93 Broy./Diag. 0.10E+00    5.3     0.02857511       -79.4343591214 -1.31E-02
    94 Broy./Diag. 0.10E+00    5.3     0.01284844       -79.4674427450 -3.31E-02
    95 Broy./Diag. 0.10E+00    5.5     0.01329401       -79.4704682323 -3.03E-03
    96 Broy./Diag. 0.10E+00    5.3     0.01440844       -79.4781207778 -7.65E-03
    97 Broy./Diag. 0.10E+00    5.3     0.03128945       -79.4909327437 -1.28E-02
[...]
   418 Broy./Diag. 0.10E+00    5.3     0.04840272       -79.8221848691 -8.82E-02
   419 Broy./Diag. 0.10E+00    5.3     0.03872962       -79.7585563025  6.36E-02
   420 Broy./Diag. 0.10E+00    5.5     0.14000650       -79.6730849336  8.55E-02
   421 Broy./Diag. 0.10E+00    5.3     0.11080237       -79.9169246696 -2.44E-01
   422 Broy./Diag. 0.10E+00    5.3     0.06485356       -80.0181080961 -1.01E-01
   423 Broy./Diag. 0.10E+00    5.4     0.02437922       -80.0278690435 -9.76E-03
   424 Broy./Diag. 0.10E+00    5.3     0.04749099       -80.0046480225  2.32E-02
   425 Broy./Diag. 0.10E+00    5.3     0.06602481       -80.0440815245 -3.94E-02
   426 Broy./Diag. 0.10E+00    5.3     0.05966774       -79.9286692335  1.15E-01
   427 Broy./Diag. 0.10E+00    5.3     0.02533175       -80.0176425625 -8.90E-02
   428 Broy./Diag. 0.10E+00    5.3     0.36903965       -79.8981527358  1.19E-01
   429 Broy./Diag. 0.10E+00    5.3     0.30590963       -79.2303780890  6.68E-01
   430 Broy./Diag. 0.10E+00    5.3     0.09851784       -78.9273880448  3.03E-01
   431 Broy./Diag. 0.10E+00    5.3     0.08607666       -79.0466833324 -1.19E-01
   432 Broy./Diag. 0.10E+00    5.3     0.05149700       -79.2187468419 -1.72E-01
   433 Broy./Diag. 0.10E+00    5.3     0.03585328       -79.1484531719  7.03E-02
   434 Broy./Diag. 0.10E+00    5.3     0.02875192       -79.1293904360  1.91E-02
   435 Broy./Diag. 0.10E+00    5.3     0.01134265       -79.1949879102 -6.56E-02
   436 Broy./Diag. 0.10E+00    5.3     0.02051532       -79.1805716671  1.44E-02
   437 Broy./Diag. 0.10E+00    5.3     0.01061468       -79.2160881669 -3.55E-02
   438 Broy./Diag. 0.10E+00    5.3     0.01082273       -79.2197366037 -3.65E-03
   439 Broy./Diag. 0.10E+00    5.3     0.01299383       -79.2107072166  9.03E-03
   440 Broy./Diag. 0.10E+00    5.3     0.01525505       -79.2080818325  2.63E-03
   441 Broy./Diag. 0.10E+00    5.3     0.01703270       -79.2117717823 -3.69E-03
   442 Broy./Diag. 0.10E+00    5.3     0.01518213       -79.1894679501  2.23E-02
   443 Broy./Diag. 0.10E+00    5.3     0.01438829       -79.1814190284  8.05E-03
   444 Broy./Diag. 0.10E+00    5.4     0.01587172       -79.1882561850 -6.84E-03
   445 Broy./Diag. 0.10E+00    5.4     0.01815806       -79.1852333913  3.02E-03
   446 Broy./Diag. 0.10E+00    5.3     0.06385412       -79.1962621233 -1.10E-02
   447 Broy./Diag. 0.10E+00    5.3     0.04468604       -79.3134964411 -1.17E-01
   448 Broy./Diag. 0.10E+00    5.3     0.04620707       -79.3560687607 -4.26E-02
   449 Broy./Diag. 0.10E+00    5.3     0.05752536       -79.3904417225 -3.44E-02
   450 Broy./Diag. 0.10E+00    5.3     0.09350786       -79.4266237532 -3.62E-02
   451 Broy./Diag. 0.10E+00    5.3     0.14365475       -79.4715480913 -4.49E-02
   452 Broy./Diag. 0.10E+00    5.4     0.19118054       -79.5221672953 -5.06E-02
   453 Broy./Diag. 0.10E+00    5.3     0.21634527       -79.5565294100 -3.44E-02
   454 Broy./Diag. 0.10E+00    5.3     0.21007334       -79.5894940215 -3.30E-02
   455 Broy./Diag. 0.10E+00    5.3     0.15021746       -79.6210567499 -3.16E-02
   456 Broy./Diag. 0.10E+00    5.3     0.10722190       -79.5966781455  2.44E-02
   457 Broy./Diag. 0.10E+00    5.3     0.06730452       -79.5628960743  3.38E-02
   458 Broy./Diag. 0.10E+00    5.3     0.05015044       -79.5233617638  3.95E-02
   459 Broy./Diag. 0.10E+00    5.3     0.04666916       -79.4823085333  4.11E-02
   460 Broy./Diag. 0.10E+00    5.3     0.03447146       -79.4685214306  1.38E-02
   461 Broy./Diag. 0.10E+00    5.3     0.04986266       -79.4558720778  1.26E-02
   462 Broy./Diag. 0.10E+00    5.3     0.10405472       -79.3698327552  8.60E-02
   463 Broy./Diag. 0.10E+00    5.3     0.09514217       -79.2175382342  1.52E-01
   464 Broy./Diag. 0.10E+00    5.3     0.08318671       -79.1920329282  2.55E-02
   465 Broy./Diag. 0.10E+00    5.3     0.42585409       -79.2256489950 -3.36E-02
   466 Broy./Diag. 0.10E+00    5.3     0.21637358       -78.9870363925  2.39E-01
   467 Broy./Diag. 0.10E+00    5.4     0.17174954       -79.1500192680 -1.63E-01
   468 Broy./Diag. 0.10E+00    5.3     0.14794474       -79.3537275700 -2.04E-01
   469 Broy./Diag. 0.10E+00    5.3     0.11786267       -79.1921966694  1.62E-01
   470 Broy./Diag. 0.10E+00    5.3     0.15621681       -79.1668274605  2.54E-02
   471 Broy./Diag. 0.10E+00    5.3     0.04945627       -79.3693659312 -2.03E-01
   472 Broy./Diag. 0.10E+00    5.3     0.03297048       -79.3751784279 -5.81E-03
   473 Broy./Diag. 0.10E+00    5.3     0.04466306       -79.3957327233 -2.06E-02
   474 Broy./Diag. 0.10E+00    5.3     0.08322409       -79.4196657863 -2.39E-02
   475 Broy./Diag. 0.10E+00    5.3     0.05465298       -79.2231071082  1.97E-01
   476 Broy./Diag. 0.10E+00    5.3     0.03890077       -79.1819816585  4.11E-02
   477 Broy./Diag. 0.10E+00    5.3     0.01849586       -79.1789364623  3.05E-03
   478 Broy./Diag. 0.10E+00    5.3     0.03344131       -79.1851699464 -6.23E-03
   479 Broy./Diag. 0.10E+00    5.3     0.02830841       -79.2473678087 -6.22E-02
   480 Broy./Diag. 0.10E+00    5.3     0.01153766       -79.2872987540 -3.99E-02
   481 Broy./Diag. 0.10E+00    5.3     0.00673519       -79.2916863035 -4.39E-03
   482 Broy./Diag. 0.10E+00    5.3     0.00878536       -79.2878755524  3.81E-03
   483 Broy./Diag. 0.10E+00    5.3     0.01084226       -79.2879559404 -8.04E-05
   484 Broy./Diag. 0.10E+00    5.3     0.01370143       -79.3041202881 -1.62E-02
   485 Broy./Diag. 0.10E+00    5.3     0.01391340       -79.3193476552 -1.52E-02
   486 Broy./Diag. 0.10E+00    5.3     0.00876440       -79.3267758468 -7.43E-03
   487 Broy./Diag. 0.10E+00    5.3     0.00821062       -79.3154987580  1.13E-02
   488 Broy./Diag. 0.10E+00    5.3     0.01473359       -79.3069878966  8.51E-03
   489 Broy./Diag. 0.10E+00    5.3     0.02111298       -79.2878490246  1.91E-02
   490 Broy./Diag. 0.10E+00    5.3     0.01712610       -79.2581942041  2.97E-02
   491 Broy./Diag. 0.10E+00    5.4     0.01008455       -79.2422127337  1.60E-02
   492 Broy./Diag. 0.10E+00    5.3     0.00578344       -79.2423239174 -1.11E-04
   493 Broy./Diag. 0.10E+00    5.3     0.00756916       -79.2507292385 -8.41E-03
   494 Broy./Diag. 0.10E+00    5.3     0.01342366       -79.2503630579  3.66E-04
   495 Broy./Diag. 0.10E+00    5.3     0.01158926       -79.2273719422  2.30E-02
   496 Broy./Diag. 0.10E+00    5.3     0.01605471       -79.2148720780  1.25E-02
   497 Broy./Diag. 0.10E+00    5.4     0.00719820       -79.1956532485  1.92E-02
   498 Broy./Diag. 0.10E+00    5.4     0.02455337       -79.1949989915  6.54E-04
   499 Broy./Diag. 0.10E+00    5.3     0.01915634       -79.1592363117  3.58E-02
   500 Broy./Diag. 0.10E+00    5.3     0.01520011       -79.1331473496  2.61E-02

  Leaving inner SCF loop after reaching   500 steps.


  Electronic density on regular grids:         -8.3118772315        3.6881227685
  Core density on regular grids:               12.0000000000        0.0000000000
  Hard and soft densities (Lebedev):          -34.5745446559      -30.8821438604
  Total Rho_soft + Rho1_hard - Rho1_soft      -12.0042780270
  Total charge density (r-space):              -0.0042780270
  Total Rho_soft + Rho0_soft (g-space):        -0.0042781073

  Overlap energy of the core charge distribution:               0.00004803627663
  Self energy of the core charge distribution:                -64.05191455199152
  Core Hamiltonian energy:                                    -14.15245234426337
  Hartree energy:                                              16.59446320570463
  Exchange-correlation energy:                                 -2.73226316380216
  Hartree-Fock Exchange energy:                                -2.57785239962289

  GAPW| Exc from hard and soft atomic rho1:                    -5.35692782348778
  GAPW| local Eh = 1 center integrals:                         -6.85624830837456

  Total energy:                                               -79.13314734956103

 *******************************************************************************
 *   ___                                                                       *
 *  /   \                                                                      *
 * [ABORT]                                                                     *
 *  \___/     SCF run NOT converged. To continue the calculation regardless,   *
 *    |             please set the keyword IGNORE_CONVERGENCE_FAILURE.         *
 *  O/|                                                                        *
 * /| |                                                                        *
 * / \                                                            qs_scf.F:611 *
 *******************************************************************************


 ===== Routine Calling Stack ===== 

            3 scf_env_do_scf
            2 qs_energies
            1 CP2K

 *******************************************************************************
 *   ___                                                                       *
 *  /   \                                                                      *
 * [ABORT]                                                                     *
 *  \___/     SCF run NOT converged. To continue the calculation regardless,   *
 *    |             please set the keyword IGNORE_CONVERGENCE_FAILURE.         *
 *  O/|                                                                        *
 * /| |                                                                        *
 * / \                                                            qs_scf.F:611 *
 *******************************************************************************


 ===== Routine Calling Stack ===== 

            3 scf_env_do_scf
            2 qs_energies
            1 CP2K

 *******************************************************************************
 *   ___                                                                       *
 *  /   \                                                                      *
 * [ABORT]                                                                     *
 *  \___/     SCF run NOT converged. To continue the calculation regardless,   *
 *    |             please set the keyword IGNORE_CONVERGENCE_FAILURE.         *
 *  O/|                                                                        *
 * /| |                                                                        *
 * / \                                                            qs_scf.F:611 *
 *******************************************************************************


 ===== Routine Calling Stack ===== 

            3 scf_env_do_scf
            2 qs_energies
            1 CP2K

 *******************************************************************************
 *   ___                                                                       *
 *  /   \                                                                      *
 * [ABORT]                                                                     *
 *  \___/     SCF run NOT converged. To continue the calculation regardless,   *
 *    |             please set the keyword IGNORE_CONVERGENCE_FAILURE.         *
 *  O/|                                                                        *
 * /| |                                                                        *
 * / \                                                            qs_scf.F:611 *
 *******************************************************************************


 ===== Routine Calling Stack ===== 

            3 scf_env_do_scf
            2 qs_energies
            1 CP2K

 *******************************************************************************
 *   ___                                                                       *
 *  /   \                                                                      *
 * [ABORT]                                                                     *
 *  \___/     SCF run NOT converged. To continue the calculation regardless,   *
 *    |             please set the keyword IGNORE_CONVERGENCE_FAILURE.         *
 *  O/|                                                                        *
 * /| |                                                                        *
 * / \                                                            qs_scf.F:611 *
 *******************************************************************************


 ===== Routine Calling Stack ===== 

            3 scf_env_do_scf
            2 qs_energies
            1 CP2K

 *******************************************************************************
 *   ___                                                                       *
 *  /   \                                                                      *
 * [ABORT]                                                                     *
 *  \___/     SCF run NOT converged. To continue the calculation regardless,   *
 *    |             please set the keyword IGNORE_CONVERGENCE_FAILURE.         *
 *  O/|                                                                        *
 * /| |                                                                        *
 * / \                                                            qs_scf.F:611 *
 *******************************************************************************


 ===== Routine Calling Stack ===== 

            3 scf_env_do_scf
            2 qs_energies
            1 CP2K

 *******************************************************************************
 *   ___                                                                       *
 *  /   \                                                                      *
 * [ABORT]                                                                     *
 *  \___/     SCF run NOT converged. To continue the calculation regardless,   *
 *    |             please set the keyword IGNORE_CONVERGENCE_FAILURE.         *
 *  O/|                                                                        *
 * /| |                                                                        *
 * / \                                                            qs_scf.F:611 *
 *******************************************************************************


 ===== Routine Calling Stack ===== 

            3 scf_env_do_scf
            2 qs_energies
            1 CP2K

 *******************************************************************************
 *   ___                                                                       *
 *  /   \                                                                      *
 * [ABORT]                                                                     *
 *  \___/     SCF run NOT converged. To continue the calculation regardless,   *
 *    |             please set the keyword IGNORE_CONVERGENCE_FAILURE.         *
 *  O/|                                                                        *
 * /| |                                                                        *
 * / \                                                            qs_scf.F:611 *
 *******************************************************************************


 ===== Routine Calling Stack ===== 

            3 scf_env_do_scf
            2 qs_energies
            1 CP2K

 *******************************************************************************
 *   ___                                                                       *
 *  /   \                                                                      *
 * [ABORT]                                                                     *
 *  \___/     SCF run NOT converged. To continue the calculation regardless,   *
 *    |             please set the keyword IGNORE_CONVERGENCE_FAILURE.         *
 *  O/|                                                                        *
 * /| |                                                                        *
 * / \                                                            qs_scf.F:611 *
 *******************************************************************************


 ===== Routine Calling Stack ===== 

            3 scf_env_do_scf
            2 qs_energies
            1 CP2K

 *******************************************************************************
 *   ___                                                                       *
 *  /   \                                                                      *
 * [ABORT]                                                                     *
 *  \___/     SCF run NOT converged. To continue the calculation regardless,   *
 *    |             please set the keyword IGNORE_CONVERGENCE_FAILURE.         *
 *  O/|                                                                        *
 * /| |                                                                        *
 * / \                                                            qs_scf.F:611 *
 *******************************************************************************


 ===== Routine Calling Stack ===== 

            3 scf_env_do_scf
            2 qs_energies
            1 CP2K

 *******************************************************************************
 *   ___                                                                       *
 *  /   \                                                                      *
 * [ABORT]                                                                     *
 *  \___/     SCF run NOT converged. To continue the calculation regardless,   *
 *    |             please set the keyword IGNORE_CONVERGENCE_FAILURE.         *
 *  O/|                                                                        *
 * /| |                                                                        *
 * / \                                                            qs_scf.F:611 *
 *******************************************************************************


 ===== Routine Calling Stack ===== 

            3 scf_env_do_scf
            2 qs_energies
            1 CP2K

 *******************************************************************************
 *   ___                                                                       *
 *  /   \                                                                      *
 * [ABORT]                                                                     *
 *  \___/     SCF run NOT converged. To continue the calculation regardless,   *
 *    |             please set the keyword IGNORE_CONVERGENCE_FAILURE.         *
 *  O/|                                                                        *
 * /| |                                                                        *
 * / \                                                            qs_scf.F:611 *
 *******************************************************************************


 ===== Routine Calling Stack ===== 

            3 scf_env_do_scf
            2 qs_energies
            1 CP2K

 *******************************************************************************
 *   ___                                                                       *
 *  /   \                                                                      *
 * [ABORT]                                                                     *
 *  \___/     SCF run NOT converged. To continue the calculation regardless,   *
 *    |             please set the keyword IGNORE_CONVERGENCE_FAILURE.         *
 *  O/|                                                                        *
 * /| |                                                                        *
 * / \                                                            qs_scf.F:611 *
 *******************************************************************************


 ===== Routine Calling Stack ===== 

            3 scf_env_do_scf
            2 qs_energies
            1 CP2K
