 DBCSR| CPU Multiplication driver                                           BLAS (U)
 DBCSR| Multrec recursion limit                                              512 (U)
 DBCSR| Multiplication stack size                                           1000 (D)
 DBCSR| Maximum elements for images                                    UNLIMITED (U)
 DBCSR| Multiplicative factor virtual images                                   1 (U)
 DBCSR| Use multiplication densification                                       T (D)
 DBCSR| Multiplication size stacks                                             3 (U)
 DBCSR| Use memory pool for CPU allocation                                     F (U)
 DBCSR| Number of 3D layers                                               SINGLE (U)
 DBCSR| Use MPI memory allocation                                              F (U)
 DBCSR| Use RMA algorithm                                                      F (U)
 DBCSR| Use Communication thread                                               T (U)
 DBCSR| Communication thread load                                             75 (D)
 DBCSR| MPI: My process id                                                     0
 DBCSR| MPI: Number of processes                                              24
 DBCSR| OMP: Current number of threads                                         4
 DBCSR| OMP: Max number of threads                                             4
 DBCSR| Split modifier for TAS multiplication algorithm                  1.0E+00 (U)


  **** **** ******  **  PROGRAM STARTED AT               2025-03-04 08:03:19.712
 ***** ** ***  *** **   PROGRAM STARTED ON                          i01r09c03s03
 **    ****   ******    PROGRAM STARTED BY                               di38fab
 ***** **    ** ** **   PROGRAM PROCESS ID                               1746629
  **** **  *******  **  PROGRAM STARTED IN /hppfs/scratch/04/di38fab/05_MOL/W4-1
                                           1+ALK/o2/SZV

 CP2K| version string:                 CP2K version 2025.1 (Development Version)
 CP2K| source code revision number:                                  git:47877ba
 CP2K| cp2kflags: omp libint fftw3 libxc parallel scalapack max_contr=4         
 CP2K| is freely available from                            https://www.cp2k.org/
 CP2K| Program compiled at                          Thu Feb 20 16:00:34 CET 2025
 CP2K| Program compiled on                                               login04
 CP2K| Program compiled for                                        Supermuc-foss
 CP2K| Data directory path          /hppfs/work/pn36zo/di38fab/newcp2k/cp2k/data
 CP2K| Input file name                                                    GW.inp

 GLOBAL| Force Environment number                                              1
 GLOBAL| Basis set file name            /hppfs/scratch/04/di38fab/04_TMD/BASIS_A
 GLOBAL| Potential file name            /hppfs/work/pn36zo/di38fab/cp2k/data/ALL
 GLOBAL| MM Potential file name                                     MM_POTENTIAL
 GLOBAL| Coordinate file name                                      __STD_INPUT__
 GLOBAL| Method name                                                        CP2K
 GLOBAL| Project name                                                       MoS2
 GLOBAL| Run type                                                         ENERGY
 GLOBAL| FFT library                                                       FFTW3
 GLOBAL| Diagonalization library                                       ScaLAPACK
 GLOBAL| DGEMM library                                                      BLAS
 GLOBAL| Orthonormality check for eigenvectors                          DISABLED
 GLOBAL| Matrix multiplication library                                 ScaLAPACK
 GLOBAL| All-to-all communication in single precision                          F
 GLOBAL| FFTs using library dependent lengths                                  F
 GLOBAL| Grid backend                                                       AUTO
 GLOBAL| Global print level                                               MEDIUM
 GLOBAL| MPI I/O enabled                                                       T
 GLOBAL| Total number of message passing processes                            24
 GLOBAL| Number of threads for this process                                    4
 GLOBAL| This output is from process                                           0
 GLOBAL| OpenMP stack size per thread (OMP_STACKSIZE)                    default
 GLOBAL| CPU model name             Intel(R) Xeon(R) Platinum 8174 CPU @ 3.10GHz

 MEMORY| system memory details [Kb]
 MEMORY|                        rank 0           min           max       average
 MEMORY| MemTotal             98436664      98436664      98436692      98436678
 MEMORY| MemFree              84032708      83739580      84032708      83886144
 MEMORY| Buffers                     0             0             0             0
 MEMORY| Cached                2419868       2409204       2419868       2414536
 MEMORY| Slab                  1236324       1231476       1236324       1233900
 MEMORY| SReclaimable           268548        268548        275236        271892
 MEMORY| MemLikelyFree        86721124      86424020      86721124      86572572


 *** Fundamental physical constants (SI units) ***

 *** Literature: B. J. Mohr and B. N. Taylor,
 ***             CODATA recommended values of the fundamental physical
 ***             constants: 2006, Web Version 5.1
 ***             http://physics.nist.gov/constants

 Speed of light in vacuum [m/s]                             2.99792458000000E+08
 Magnetic constant or permeability of vacuum [N/A**2]       1.25663706143592E-06
 Electric constant or permittivity of vacuum [F/m]          8.85418781762039E-12
 Planck constant (h) [J*s]                                  6.62606896000000E-34
 Planck constant (h-bar) [J*s]                              1.05457162825177E-34
 Elementary charge [C]                                      1.60217648700000E-19
 Electron mass [kg]                                         9.10938215000000E-31
 Electron g factor [ ]                                     -2.00231930436220E+00
 Proton mass [kg]                                           1.67262163700000E-27
 Fine-structure constant                                    7.29735253760000E-03
 Rydberg constant [1/m]                                     1.09737315685270E+07
 Avogadro constant [1/mol]                                  6.02214179000000E+23
 Boltzmann constant [J/K]                                   1.38065040000000E-23
 Atomic mass unit [kg]                                      1.66053878200000E-27
 Bohr radius [m]                                            5.29177208590000E-11

 *** Conversion factors ***

 [u] -> [a.u.]                                              1.82288848426455E+03
 [Angstrom] -> [Bohr] = [a.u.]                              1.88972613288564E+00
 [a.u.] = [Bohr] -> [Angstrom]                              5.29177208590000E-01
 [a.u.] -> [s]                                              2.41888432650478E-17
 [a.u.] -> [fs]                                             2.41888432650478E-02
 [a.u.] -> [J]                                              4.35974393937059E-18
 [a.u.] -> [N]                                              8.23872205491840E-08
 [a.u.] -> [K]                                              3.15774647902944E+05
 [a.u.] -> [kJ/mol]                                         2.62549961709828E+03
 [a.u.] -> [kcal/mol]                                       6.27509468713739E+02
 [a.u.] -> [Pa]                                             2.94210107994716E+13
 [a.u.] -> [bar]                                            2.94210107994716E+08
 [a.u.] -> [atm]                                            2.90362800883016E+08
 [a.u.] -> [eV]                                             2.72113838565563E+01
 [a.u.] -> [Hz]                                             6.57968392072181E+15
 [a.u.] -> [1/cm] (wave numbers)                            2.19474631370540E+05
 [a.u./Bohr**2] -> [1/cm]                                   5.14048714338585E+03
 

 CELL_TOP| Volume [angstrom^3]:                                     27000.000000
 CELL_TOP| Vector a [angstrom    30.000     0.000     0.000   |a| =    30.000000
 CELL_TOP| Vector b [angstrom     0.000    30.000     0.000   |b| =    30.000000
 CELL_TOP| Vector c [angstrom     0.000     0.000    30.000   |c| =    30.000000
 CELL_TOP| Angle (b,c), alpha [degree]:                                90.000000
 CELL_TOP| Angle (a,c), beta  [degree]:                                90.000000
 CELL_TOP| Angle (a,b), gamma [degree]:                                90.000000
 CELL_TOP| Numerically orthorhombic:                                         YES
 CELL_TOP| Periodicity                                                      NONE

 GENERATE|  Preliminary Number of Bonds generated:                             0
 GENERATE|  Achieved consistency in connectivity generation.

 CELL| Volume [angstrom^3]:                                         27000.000000
 CELL| Vector a [angstrom]:      30.000     0.000     0.000   |a| =    30.000000
 CELL| Vector b [angstrom]:       0.000    30.000     0.000   |b| =    30.000000
 CELL| Vector c [angstrom]:       0.000     0.000    30.000   |c| =    30.000000
 CELL| Angle (b,c), alpha [degree]:                                    90.000000
 CELL| Angle (a,c), beta  [degree]:                                    90.000000
 CELL| Angle (a,b), gamma [degree]:                                    90.000000
 CELL| Numerically orthorhombic:                                             YES
 CELL| Periodicity                                                          NONE

 CELL_REF| Volume [angstrom^3]:                                     27000.000000
 CELL_REF| Vector a [angstrom    30.000     0.000     0.000   |a| =    30.000000
 CELL_REF| Vector b [angstrom     0.000    30.000     0.000   |b| =    30.000000
 CELL_REF| Vector c [angstrom     0.000     0.000    30.000   |c| =    30.000000
 CELL_REF| Angle (b,c), alpha [degree]:                                90.000000
 CELL_REF| Angle (a,c), beta  [degree]:                                90.000000
 CELL_REF| Angle (a,b), gamma [degree]:                                90.000000
 CELL_REF| Numerically orthorhombic:                                         YES
 CELL_REF| Periodicity                                                      NONE

 *******************************************************************************
 *******************************************************************************
 **                                                                           **
 **     #####                         ##              ##                      **
 **    ##   ##            ##          ##              ##                      **
 **   ##     ##                       ##            ######                    **
 **   ##     ##  ##   ##  ##   #####  ##  ##   ####   ##    #####    #####    **
 **   ##     ##  ##   ##  ##  ##      ## ##   ##      ##   ##   ##  ##   ##   **
 **   ##  ## ##  ##   ##  ##  ##      ####     ###    ##   ######   ######    **
 **    ##  ###   ##   ##  ##  ##      ## ##      ##   ##   ##       ##        **
 **     #######   #####   ##   #####  ##  ##  ####    ##    #####   ##        **
 **           ##                                                    ##        **
 **                                                                           **
 **                                                ... make the atoms dance   **
 **                                                                           **
 **            Copyright (C) by CP2K developers group (2000-2025)             **
 **                      J. Chem. Phys. 152, 194103 (2020)                    **
 **                                                                           **
 *******************************************************************************

 DFT| Spin restricted Kohn-Sham (RKS) calculation                            RKS
 DFT| Multiplicity                                                             1
 DFT| Number of spin states                                                    1
 DFT| Charge                                                                   0
 DFT| Self-interaction correction (SIC)                                       NO
 DFT| Cutoffs: density                                              1.000000E-10
 DFT|          gradient                                             1.000000E-10
 DFT|          tau                                                  1.000000E-10
 DFT|          cutoff_smoothing_range                               0.000000E+00
 DFT| XC density smoothing                                                  NONE
 DFT| XC derivatives                                                          PW

 FUNCTIONAL| PBE:
 FUNCTIONAL| J.P.Perdew, K.Burke, M.Ernzerhof, Phys. Rev. Letter, vol. 77, n 18,
 FUNCTIONAL|  pp. 3865-3868, (1996)sx=0.750sc=1.000{spin unpolarized}           


 QS| Method:                                                                GAPW
 QS| Density plane wave grid type                        NON-SPHERICAL FULLSPACE
 QS| Number of grid levels:                                                    4
 QS| Density cutoff [a.u.]:                                                250.0
 QS| Multi grid cutoff [a.u.]: 1) grid level                               250.0
 QS|                           2) grid level                                83.3
 QS|                           3) grid level                                27.8
 QS|                           4) grid level                                 9.3
 QS| Grid level progression factor:                                          3.0
 QS| Relative density cutoff [a.u.]:                                        50.0
 QS| Interaction thresholds: eps_pgf_orb:                                1.0E-12
 QS|                         eps_filter_matrix:                          0.0E+00
 QS|                         eps_core_charge:                            1.0E-14
 QS|                         eps_rho_gspace:                             1.0E-12
 QS|                         eps_rho_rspace:                             1.0E-12
 QS|                         eps_gvg_rspace:                             1.0E-06
 QS|                         eps_ppl:                                    1.0E-02
 QS|                         eps_ppnl:                                   1.0E-08
 QS| GAPW|      One center basis from orbital basis primitives
 QS| GAPW|                   eps_fit:                                    1.0E-04
 QS| GAPW|                   eps_iso:                                    1.0E-12
 QS| GAPW|                   eps_svd:                                    1.0E-08
 QS| GAPW|                   eps_cpc:                                    1.0E-12
 QS| GAPW|   atom-r-grid: quadrature:                                     GC_LOG
 QS| GAPW|      atom-s-grid:  max l :                                          2
 QS| GAPW|      max_l_rho0 :                                                   2


 ATOMIC KIND INFORMATION

  1. Atomic kind: O                                     Number of atoms:       2

     Orbital Basis Set                                         aug-SZV-MOLOPT-ae

       Number of orbital shell sets:                                           2
       Number of orbital shells:                                               5
       Number of primitive Cartesian functions:                               13
       Number of Cartesian basis functions:                                    9
       Number of spherical basis functions:                                    9
       Norm type:                                                              2

       Normalised Cartesian orbitals:

                        Set   Shell   Orbital            Exponent    Coefficient

                          1       1    1s                0.123000       0.000000
                                                         0.245881       0.059902
                                                         0.536420       0.265853
                                                         1.235135       0.208956
                                                         3.210345      -0.057750
                                                        10.329320      -0.192968
                                                        52.187762      -0.183398

                          1       2    2s                0.123000      -0.253465
                                                         0.245881       0.187097
                                                         0.536420       0.063592
                                                         1.235135       0.074938
                                                         3.210345       0.000000
                                                        10.329320       0.000000
                                                        52.187762       0.000000

                          1       3    2px               0.123000       0.000000
                                                         0.245881       0.025102
                                                         0.536420       0.278668
                                                         1.235135       0.775885
                                                         3.210345       1.065175
                                                        10.329320       0.994565
                                                        52.187762       0.751716
                          1       3    2py               0.123000       0.000000
                                                         0.245881       0.025102
                                                         0.536420       0.278668
                                                         1.235135       0.775885
                                                         3.210345       1.065175
                                                        10.329320       0.994565
                                                        52.187762       0.751716
                          1       3    2pz               0.123000       0.000000
                                                         0.245881       0.025102
                                                         0.536420       0.278668
                                                         1.235135       0.775885
                                                         3.210345       1.065175
                                                        10.329320       0.994565
                                                        52.187762       0.751716

                          1       4    3px               0.123000       0.048536
                                                         0.245881       0.257066
                                                         0.536420      -0.539300
                                                         1.235135      -0.153605
                                                         3.210345       0.000000
                                                        10.329320       0.000000
                                                        52.187762       0.000000
                          1       4    3py               0.123000       0.048536
                                                         0.245881       0.257066
                                                         0.536420      -0.539300
                                                         1.235135      -0.153605
                                                         3.210345       0.000000
                                                        10.329320       0.000000
                                                        52.187762       0.000000
                          1       4    3pz               0.123000       0.048536
                                                         0.245881       0.257066
                                                         0.536420      -0.539300
                                                         1.235135      -0.153605
                                                         3.210345       0.000000
                                                        10.329320       0.000000
                                                        52.187762       0.000000

                          2       1    1s             1355.584234       1.459053
                                                       248.544885       2.202176
                                                        69.533902       2.892385
                                                        23.886772       2.853580
                                                         9.275933       1.577736
                                                         3.820341       0.253831

     RI Auxiliary Basis Set             RI_aug-SZV-MOLOPT-ae-SR_N_RI_041_s_p_d_f

       Number of orbital shell sets:                                          13
       Number of orbital shells:                                              13
       Number of primitive Cartesian functions:                               13
       Number of Cartesian basis functions:                                   49
       Number of spherical basis functions:                                   41
       Norm type:                                                              2

       Normalised Cartesian orbitals:

                        Set   Shell   Orbital            Exponent    Coefficient

                          1       1    1s                0.578587       0.472810

                          2       1    6px               0.780295       1.045355
                          2       1    6py               0.780295       1.045355
                          2       1    6pz               0.780295       1.045355

                          3       1   10dx2              0.833706       1.197242
                          3       1   10dxy              0.833706       2.073683
                          3       1   10dxz              0.833706       2.073683
                          3       1   10dy2              0.833706       1.197242
                          3       1   10dyz              0.833706       2.073683
                          3       1   10dz2              0.833706       1.197242

                          4       1   12fx3              1.109067       1.858272
                          4       1   12fx2y             1.109067       4.155223
                          4       1   12fx2z             1.109067       4.155223
                          4       1   12fxy2             1.109067       4.155223
                          4       1   12fxyz             1.109067       7.197057
                          4       1   12fxz2             1.109067       4.155223
                          4       1   12fy3              1.109067       1.858272
                          4       1   12fy2z             1.109067       4.155223
                          4       1   12fyz2             1.109067       4.155223
                          4       1   12fz3              1.109067       1.858272

                          5       1    2s                1.362244       0.898672

                          6       1    7px               1.646979       2.659500
                          6       1    7py               1.646979       2.659500
                          6       1    7pz               1.646979       2.659500

                          7       1   11dx2              3.352121      13.668437
                          7       1   11dxy              3.352121      23.674428
                          7       1   11dxz              3.352121      23.674428
                          7       1   11dy2              3.352121      13.668437
                          7       1   11dyz              3.352121      23.674428
                          7       1   11dz2              3.352121      13.668437

                          8       1   13fx3              4.593152      45.467791
                          8       1   13fx2y             4.593152     101.669072
                          8       1   13fx2z             4.593152     101.669072
                          8       1   13fxy2             4.593152     101.669072
                          8       1   13fxyz             4.593152     176.095999
                          8       1   13fxz2             4.593152     101.669072
                          8       1   13fy3              4.593152      45.467791
                          8       1   13fy2z             4.593152     101.669072
                          8       1   13fyz2             4.593152     101.669072
                          8       1   13fz3              4.593152      45.467791

                          9       1    3s                6.300889       2.834402

                         10       1    8px               7.242711      16.936222
                         10       1    8py               7.242711      16.936222
                         10       1    8pz               7.242711      16.936222

                         11       1    9px              31.220564     105.194011
                         11       1    9py              31.220564     105.194011
                         11       1    9pz              31.220564     105.194011

                         12       1    4s               32.040850       9.598163

                         13       1    5s              162.601818      32.452947

       Atomic covalent radius [Angstrom]:                                  0.730

       Atomic van der Waals radius [Angstrom]:                             1.520

     The atoms of this atomic kind are PAW atoms (GAPW):
       Hard Gaussian function radius:                                      1.512
       Rho0 radius:                                                        1.512
       Maximum GTO radius used for PAW projector construction:            24.566

     GAPW Soft Basis Set                                  aug-SZV-MOLOPT-ae_soft

       Number of orbital shell sets:                                           2
       Number of orbital shells:                                               5
       Number of primitive Cartesian functions:                                6
       Number of Cartesian basis functions:                                    9
       Number of spherical basis functions:                                    9
       Norm type:                                                              2

       Normalised Cartesian orbitals:

                        Set   Shell   Orbital            Exponent    Coefficient

                          1       1    1s                0.123000       0.000000
                                                         0.245881       0.059902
                                                         0.536420       0.265853
                                                         1.235135       0.208956
                                                         3.210345      -0.057750

                          1       2    2s                0.123000      -0.253465
                                                         0.245881       0.187097
                                                         0.536420       0.063592
                                                         1.235135       0.074938
                                                         3.210345       0.000000

                          1       3    2px               0.123000       0.000000
                                                         0.245881       0.025102
                                                         0.536420       0.278668
                                                         1.235135       0.775885
                                                         3.210345       1.065175
                          1       3    2py               0.123000       0.000000
                                                         0.245881       0.025102
                                                         0.536420       0.278668
                                                         1.235135       0.775885
                                                         3.210345       1.065175
                          1       3    2pz               0.123000       0.000000
                                                         0.245881       0.025102
                                                         0.536420       0.278668
                                                         1.235135       0.775885
                                                         3.210345       1.065175

                          1       4    3px               0.123000       0.048536
                                                         0.245881       0.257066
                                                         0.536420      -0.539300
                                                         1.235135      -0.153605
                                                         3.210345       0.000000
                          1       4    3py               0.123000       0.048536
                                                         0.245881       0.257066
                                                         0.536420      -0.539300
                                                         1.235135      -0.153605
                                                         3.210345       0.000000
                          1       4    3pz               0.123000       0.048536
                                                         0.245881       0.257066
                                                         0.536420      -0.539300
                                                         1.235135      -0.153605
                                                         3.210345       0.000000

                          2       1    1s                3.820341       0.253831

     AE Potential information for                                            ALL

       Description:                                       All-electron potential
                                          Krack, Parrinello, PCCP 2, 2105 (2000)

       Gaussian exponent of the core charge distribution:               8.154466
       Electronic configuration (s p d ...):                           4   4   0


 MOLECULE KIND INFORMATION


 All atoms are their own molecule, skipping detailed information


 TOTAL NUMBERS AND MAXIMUM NUMBERS

  Total number of            - Atomic kinds:                                   1
                             - Atoms:                                          2
                             - Shell sets:                                     4
                             - Shells:                                        10
                             - Primitive Cartesian functions:                 26
                             - Cartesian basis functions:                     18
                             - Spherical basis functions:                     18

  Maximum angular momentum of the orbital basis functions:                     1


 MODULE QUICKSTEP: ATOMIC COORDINATES IN ANGSTROM

   Atom Kind Element         X             Y             Z       Z(eff)     Mass
      1    1 O     8     15.603900     15.000000     15.000000   8.0000  15.9994
      2    1 O     8     14.396100     15.000000     15.000000   8.0000  15.9994



 SCF PARAMETERS         Density guess:                                    ATOMIC
                        --------------------------------------------------------
                        max_scf:                                             500
                        max_scf_history:                                       0
                        max_diis:                                              4
                        --------------------------------------------------------
                        eps_scf:                                        1.00E-06
                        eps_scf_history:                                0.00E+00
                        eps_diis:                                       1.00E-01
                        eps_eigval:                                     1.00E-05
                        --------------------------------------------------------
                        level_shift [a.u.]:                             0.000000
                        added MOs                                        10    0
                        --------------------------------------------------------
                        Mixing method:                            BROYDEN_MIXING
                                                charge density mixing in g-space
                        --------------------------------------------------------
                        No outer SCF

 PW_GRID| Information for grid number                                          1
 PW_GRID| Grid distributed over                                    24 processors
 PW_GRID| Real space group dimensions                                    24    1
 PW_GRID| the grid is blocked:                                                NO
 PW_GRID| Cutoff [a.u.]                                                    250.0
 PW_GRID| spherical cutoff:                                                   NO
 PW_GRID|   Bounds   1           -202     202                Points:         405
 PW_GRID|   Bounds   2           -202     202                Points:         405
 PW_GRID|   Bounds   3           -202     202                Points:         405
 PW_GRID| Volume element (a.u.^3)  0.2743E-02     Volume (a.u.^3)    182205.0337
 PW_GRID| Grid span                                                    FULLSPACE
 PW_GRID|   Distribution                         Average         Max         Min
 PW_GRID|   G-Vectors                          2767921.9     2768175     2767770
 PW_GRID|   G-Rays                                6834.4        6835        6834
 PW_GRID|   Real Space Points                  2767921.9     2788425     2624400

 PW_GRID| Information for grid number                                          2
 PW_GRID| Number of the reference grid                                         1
 PW_GRID| Grid distributed over                                    24 processors
 PW_GRID| Real space group dimensions                                    24    1
 PW_GRID| the grid is blocked:                                                NO
 PW_GRID| Cutoff [a.u.]                                                     83.3
 PW_GRID| spherical cutoff:                                                   NO
 PW_GRID|   Bounds   1           -120     119                Points:         240
 PW_GRID|   Bounds   2           -120     119                Points:         240
 PW_GRID|   Bounds   3           -120     119                Points:         240
 PW_GRID| Volume element (a.u.^3)  0.1318E-01     Volume (a.u.^3)    182205.0337
 PW_GRID| Grid span                                                    FULLSPACE
 PW_GRID|   Distribution                         Average         Max         Min
 PW_GRID|   G-Vectors                           576000.0      576240      575760
 PW_GRID|   G-Rays                                2400.0        2401        2399
 PW_GRID|   Real Space Points                   576000.0      576000      576000

 PW_GRID| Information for grid number                                          3
 PW_GRID| Number of the reference grid                                         1
 PW_GRID| Grid distributed over                                    24 processors
 PW_GRID| Real space group dimensions                                    24    1
 PW_GRID| the grid is blocked:                                                NO
 PW_GRID| Cutoff [a.u.]                                                     27.8
 PW_GRID| spherical cutoff:                                                   NO
 PW_GRID|   Bounds   1            -67      67                Points:         135
 PW_GRID|   Bounds   2            -67      67                Points:         135
 PW_GRID|   Bounds   3            -67      67                Points:         135
 PW_GRID| Volume element (a.u.^3)  0.7406E-01     Volume (a.u.^3)    182205.0337
 PW_GRID| Grid span                                                    FULLSPACE
 PW_GRID|   Distribution                         Average         Max         Min
 PW_GRID|   G-Vectors                           102515.6      102735      102330
 PW_GRID|   G-Rays                                 759.4         761         758
 PW_GRID|   Real Space Points                   102515.6      109350       91125

 PW_GRID| Information for grid number                                          4
 PW_GRID| Number of the reference grid                                         1
 PW_GRID| Grid distributed over                                    24 processors
 PW_GRID| Real space group dimensions                                    24    1
 PW_GRID| the grid is blocked:                                                NO
 PW_GRID| Cutoff [a.u.]                                                      9.3
 PW_GRID| spherical cutoff:                                                   NO
 PW_GRID|   Bounds   1            -40      39                Points:          80
 PW_GRID|   Bounds   2            -40      39                Points:          80
 PW_GRID|   Bounds   3            -40      39                Points:          80
 PW_GRID| Volume element (a.u.^3)  0.3559         Volume (a.u.^3)    182205.0337
 PW_GRID| Grid span                                                    FULLSPACE
 PW_GRID|   Distribution                         Average         Max         Min
 PW_GRID|   G-Vectors                            21333.3       21360       21280
 PW_GRID|   G-Rays                                 266.7         267         266
 PW_GRID|   Real Space Points                    21333.3       25600       19200

 POISSON| Solver                                                         WAVELET
 POISSON| Wavelet| Scaling function                                           40
 POISSON| Periodicity                                                       NONE

 RS_GRID| Information for grid number                                          1
 RS_GRID|   Bounds   1           -202     202                Points:         405
 RS_GRID|   Bounds   2           -202     202                Points:         405
 RS_GRID|   Bounds   3           -202     202                Points:         405
 RS_GRID| Real space distribution over                                  4 groups
 RS_GRID| Real space distribution along direction                              2
 RS_GRID| Border size                                                         33
 RS_GRID| Real space distribution over                                  6 groups
 RS_GRID| Real space distribution along direction                              3
 RS_GRID| Border size                                                         33
 RS_GRID|   Distribution                         Average         Max         Min
 RS_GRID|   Planes                                 167.2         168         167
 RS_GRID|   Distribution                         Average         Max         Min
 RS_GRID|   Planes                                 133.5         134         133

 RS_GRID| Information for grid number                                          2
 RS_GRID|   Bounds   1           -120     119                Points:         240
 RS_GRID|   Bounds   2           -120     119                Points:         240
 RS_GRID|   Bounds   3           -120     119                Points:         240
 RS_GRID| Real space distribution over                                  4 groups
 RS_GRID| Real space distribution along direction                              2
 RS_GRID| Border size                                                         32
 RS_GRID| Real space distribution over                                  6 groups
 RS_GRID| Real space distribution along direction                              3
 RS_GRID| Border size                                                         32
 RS_GRID|   Distribution                         Average         Max         Min
 RS_GRID|   Planes                                 124.0         124         124
 RS_GRID|   Distribution                         Average         Max         Min
 RS_GRID|   Planes                                 104.0         104         104

 RS_GRID| Information for grid number                                          3
 RS_GRID|   Bounds   1            -67      67                Points:         135
 RS_GRID|   Bounds   2            -67      67                Points:         135
 RS_GRID|   Bounds   3            -67      67                Points:         135
 RS_GRID| Real space fully replicated
 RS_GRID| Group size                                                           1

 RS_GRID| Information for grid number                                          4
 RS_GRID|   Bounds   1            -40      39                Points:          80
 RS_GRID|   Bounds   2            -40      39                Points:          80
 RS_GRID|   Bounds   3            -40      39                Points:          80
 RS_GRID| Real space fully replicated
 RS_GRID| Group size                                                           1

  HFX_INFO| Replica ID:                                                        1
  HFX_INFO| FRACTION:                                               0.2500000000
  HFX_INFO| Interaction Potential:                                       COULOMB
  HFX_INFO| EPS_SCHWARZ:                                                 1.0E-10
  HFX_INFO| EPS_SCHWARZ_FORCES                                           1.0E-08
  HFX_INFO| EPS_STORAGE_SCALING:                                         1.0E+00
  HFX_INFO| NBINS:                                                            64
  HFX_INFO| BLOCK_SIZE:                                                        1
  HFX_INFO| Number of periodic shells considered:                           NONE
  HFX_INFO| Number of periodic cells considered:                            NONE

 
 RI-RPA| using GPW style
 

 OVERLAP MATRIX CONDITION NUMBER
 1-Norm Condition Number (Estimate)
   CN : |A|*|A^-1|:  3.108E+000 *  9.885E+001   = 3.072E+002  Log(1-CN):  2.4874
 1-Norm and 2-Norm Condition Numbers using Diagonalization
   CN : |A|*|A^-1|:  3.108E+000 *  9.885E+001   = 3.072E+002  Log(1-CN):  2.4874
   CN : max/min ev:  2.566E+000 /  1.397E-002   = 1.836E+002  Log(2-CN):  2.2639

 Number of electrons:                                                         16
 Number of occupied orbitals:                                                  8
 Number of molecular orbitals:                                                18

 Number of orbital functions:                                                 18
 Number of independent orbital functions:                                     18

 Extrapolation method: initial_guess

 Atomic guess: The first density matrix is obtained in terms of atomic orbitals
               and electronic configurations assigned to each atomic kind

 Guess for atomic kind: O

 Electronic structure
    Total number of core electrons                                          0.00
    Total number of valence electrons                                       8.00
    Total number of electrons                                               8.00
    Multiplicity                                                   not specified
    S      2.00  2.00
    P      4.00


 *******************************************************************************
                  Iteration          Convergence                     Energy [au]
 *******************************************************************************
                          1        0.735249                     -74.156692399509
                          2        0.374970                     -74.229519281434
                          3        0.137476E-02                 -74.265323889138
                          4        0.125117E-03                 -74.265324305080
                          5        0.240576E-05                 -74.265324309459
                          6        0.135447E-05                 -74.265324309460
                          7        0.538171E-07                 -74.265324309461

 Energy components [Hartree]           Total Energy ::          -74.265324309461
                                        Band Energy ::          -41.262202594008
                                     Kinetic Energy ::           72.991524336317
                                   Potential Energy ::         -147.256848645778
                                      Virial (-V/T) ::            2.017451340888
                                        Core Energy ::         -102.038650666845
                                          XC Energy ::           -7.668930692176
                                     Coulomb Energy ::           35.442257049561

 Orbital energies  State     L     Occupation   Energy[a.u.]          Energy[eV]

                       1     0          2.000     -18.982629         -516.543598
                       2     0          2.000      -0.922184          -25.093913

                       1     1          4.000      -0.363144           -9.881653


 Total Electron Density at R=0:                                       265.214148
 Re-scaling the density matrix to get the right number of electrons
                  # Electrons              Trace(P)               Scaling factor
                           16                16.000                        1.000


 SCF WAVEFUNCTION OPTIMIZATION

  Step     Update method      Time    Convergence         Total energy    Change
  ------------------------------------------------------------------------------

  HFX_MEM_INFO| Est. max. program size before HFX [MiB]:                    2093
  HFX_MEM_INFO| Number of cart. primitive ERI's calculated:              7291851
  HFX_MEM_INFO| Number of sph. ERI's calculated:                           39366
  HFX_MEM_INFO| Number of sph. ERI's stored in-core:                       39366
  HFX_MEM_INFO| Number of sph. ERI's stored on disk:                           0
  HFX_MEM_INFO| Number of sph. ERI's calculated on the fly:                    0
  HFX_MEM_INFO| Total memory consumption ERI's RAM [MiB]:                      1
  HFX_MEM_INFO| Whereof max-vals [MiB]:                                        1
  HFX_MEM_INFO| Total compression factor ERI's RAM:                         0.35
  HFX_MEM_INFO| Total memory consumption ERI's disk [MiB]:                     0
  HFX_MEM_INFO| Total compression factor ERI's disk:                        0.00
  HFX_MEM_INFO| Size of density/Fock matrix [MiB]:                             0
  HFX_MEM_INFO| Size of buffers [MiB]:                                         0
  HFX_MEM_INFO| Est. max. program size after HFX  [MiB]:                    2600

     1 NoMix/Diag. 0.10E+00    6.3     0.74505831      -150.1151808056 -1.50E+02
     2 Broy./Diag. 0.10E+00    4.9     0.01573259      -149.6555194930  4.60E-01
     3 Broy./Diag. 0.10E+00    5.0     0.05894795      -149.6804289723 -2.49E-02
     4 Broy./Diag. 0.10E+00    5.2     0.01137159      -149.7175308411 -3.71E-02
     5 Broy./Diag. 0.10E+00    5.3     0.00195426      -149.7108089958  6.72E-03
     6 Broy./Diag. 0.10E+00    5.2     0.00747043      -149.7283661738 -1.76E-02
     7 Broy./Diag. 0.10E+00    5.3     0.00211564      -149.7178520016  1.05E-02
     8 Broy./Diag. 0.10E+00    5.2     0.00163154      -149.7174548273  3.97E-04
     9 Broy./Diag. 0.10E+00    5.3     0.00104582      -149.7160996123  1.36E-03
    10 Broy./Diag. 0.10E+00    5.4     0.00049927      -149.7157577275  3.42E-04
    11 Broy./Diag. 0.10E+00    5.4     0.00055042      -149.7158344923 -7.68E-05
    12 Broy./Diag. 0.10E+00    5.3     0.00011582      -149.7167350820 -9.01E-04
    13 Broy./Diag. 0.10E+00    5.3     0.00062351      -149.7138272862  2.91E-03
    14 Broy./Diag. 0.10E+00    5.3     0.00011154      -149.7133263758  5.01E-04
    15 Broy./Diag. 0.10E+00    5.6     0.00014061      -149.7135793556 -2.53E-04
    16 Broy./Diag. 0.10E+00    5.6     0.00004353      -149.7137910368 -2.12E-04
    17 Broy./Diag. 0.10E+00    5.7     0.00002766      -149.7137045312  8.65E-05
    18 Broy./Diag. 0.10E+00    5.6     0.00004064      -149.7135060927  1.98E-04
    19 Broy./Diag. 0.10E+00    5.6     0.00003086      -149.7133494502  1.57E-04
    20 Broy./Diag. 0.10E+00    5.7     0.00004662      -149.7132380242  1.11E-04
    21 Broy./Diag. 0.10E+00    5.6     0.00005205      -149.7132683108 -3.03E-05
    22 Broy./Diag. 0.10E+00    5.4     0.00005730      -149.7133252915 -5.70E-05
    23 Broy./Diag. 0.10E+00    5.5     0.00005158      -149.7134158613 -9.06E-05
    24 Broy./Diag. 0.10E+00    5.4     0.00003120      -149.7134335663 -1.77E-05
    25 Broy./Diag. 0.10E+00    5.4     0.00001984      -149.7133601871  7.34E-05
    26 Broy./Diag. 0.10E+00    5.3     0.00002686      -149.7132976630  6.25E-05
    27 Broy./Diag. 0.10E+00    5.3     0.00003301      -149.7132697780  2.79E-05
    28 Broy./Diag. 0.10E+00    5.3     0.00002416      -149.7132413075  2.85E-05
    29 Broy./Diag. 0.10E+00    5.4     0.00002304      -149.7132361461  5.16E-06
    30 Broy./Diag. 0.10E+00    5.6     0.00003517      -149.7132318998  4.25E-06
    31 Broy./Diag. 0.10E+00    5.5     0.00003589      -149.7132214326  1.05E-05
    32 Broy./Diag. 0.10E+00    5.5     0.00004432      -149.7132205593  8.73E-07
    33 Broy./Diag. 0.10E+00    5.5     0.00007775      -149.7132191698  1.39E-06
    34 Broy./Diag. 0.10E+00    5.7     0.00011529      -149.7132219134 -2.74E-06
    35 Broy./Diag. 0.10E+00    5.6     0.00015897      -149.7132259311 -4.02E-06
    36 Broy./Diag. 0.10E+00    5.6     0.00026183      -149.7132313249 -5.39E-06
    37 Broy./Diag. 0.10E+00    5.5     0.00042855      -149.7132321339 -8.09E-07
    38 Broy./Diag. 0.10E+00    5.5     0.00070582      -149.7132327690 -6.35E-07
    39 Broy./Diag. 0.10E+00    5.5     0.00115773      -149.7132357488 -2.98E-06
    40 Broy./Diag. 0.10E+00    5.4     0.00191610      -149.7132373081 -1.56E-06
    41 Broy./Diag. 0.10E+00    5.4     0.00315491      -149.7132337220  3.59E-06
    42 Broy./Diag. 0.10E+00    5.4     0.00520903      -149.7132183209  1.54E-05
    43 Broy./Diag. 0.10E+00    5.3     0.00857815      -149.7132059811  1.23E-05
    44 Broy./Diag. 0.10E+00    5.3     0.01408343      -149.7131935441  1.24E-05
    45 Broy./Diag. 0.10E+00    5.4     0.02306887      -149.7131898344  3.71E-06
    46 Broy./Diag. 0.10E+00    5.6     0.03756776      -149.7131560958  3.37E-05
    47 Broy./Diag. 0.10E+00    5.6     0.06019690      -149.7130382432  1.18E-04
    48 Broy./Diag. 0.10E+00    5.7     0.09244924      -149.7126912717  3.47E-04
    49 Broy./Diag. 0.10E+00    5.5     0.12799512      -149.7117154780  9.76E-04
    50 Broy./Diag. 0.10E+00    5.7     0.15570679      -149.7093446197  2.37E-03
    51 Broy./Diag. 0.10E+00    5.6     0.23213741      -149.7043857225  4.96E-03
    52 Broy./Diag. 0.10E+00    5.6     0.24922586      -149.6963129506  8.07E-03
    53 Broy./Diag. 0.10E+00    5.6     0.20069082      -149.6866970054  9.62E-03
    54 Broy./Diag. 0.10E+00    5.5     0.13249841      -149.6781842363  8.51E-03
    55 Broy./Diag. 0.10E+00    5.5     0.10692058      -149.6721207371  6.06E-03
    56 Broy./Diag. 0.10E+00    5.5     0.08813453      -149.6684031657  3.72E-03
    57 Broy./Diag. 0.10E+00    5.4     0.06789118      -149.6663568692  2.05E-03
    58 Broy./Diag. 0.10E+00    5.4     0.05063856      -149.6653719816  9.85E-04
    59 Broy./Diag. 0.10E+00    5.3     0.03741607      -149.6655007550 -1.29E-04
    60 Broy./Diag. 0.10E+00    5.4     0.02946031      -149.6710996736 -5.60E-03
    61 Broy./Diag. 0.10E+00    5.4     0.02476295      -149.6801650266 -9.07E-03
    62 Broy./Diag. 0.10E+00    5.5     0.02240392      -149.6915360580 -1.14E-02
    63 Broy./Diag. 0.10E+00    5.5     0.02725150      -149.7258220516 -3.43E-02
    64 Broy./Diag. 0.10E+00    5.5     0.05894839      -149.8505155131 -1.25E-01
    65 Broy./Diag. 0.10E+00    5.6     0.16757631      -150.0756313254 -2.25E-01
    66 Broy./Diag. 0.10E+00    5.6     0.17441006      -150.0920985265 -1.65E-02
    67 Broy./Diag. 0.10E+00    5.6     0.08675614      -149.9088784225  1.83E-01
    68 Broy./Diag. 0.10E+00    5.5     0.11636078      -149.8119955977  9.69E-02
    69 Broy./Diag. 0.10E+00    5.4     0.15385287      -149.7998081035  1.22E-02
    70 Broy./Diag. 0.10E+00    5.4     0.07496044      -149.7418918510  5.79E-02
    71 Broy./Diag. 0.10E+00    5.4     0.05082969      -149.7216159697  2.03E-02
    72 Broy./Diag. 0.10E+00    5.5     0.01215021      -149.7119021252  9.71E-03
    73 Broy./Diag. 0.10E+00    5.3     0.12277480      -149.7079778321  3.92E-03
    74 Broy./Diag. 0.10E+00    5.3     0.07831391      -149.7210033833 -1.30E-02
    75 Broy./Diag. 0.10E+00    5.3     0.11758355      -149.9930207514 -2.72E-01
    76 Broy./Diag. 0.10E+00    5.3     0.10151658      -150.0621123225 -6.91E-02
    77 Broy./Diag. 0.10E+00    5.3     0.05965249      -150.0563781980  5.73E-03
    78 Broy./Diag. 0.10E+00    5.4     0.29728537      -149.9182124656  1.38E-01
    79 Broy./Diag. 0.10E+00    5.5     0.09792102      -149.8914259051  2.68E-02
    80 Broy./Diag. 0.10E+00    5.6     0.05550474      -149.8485439446  4.29E-02
    81 Broy./Diag. 0.10E+00    5.7     0.03944302      -149.8920323787 -4.35E-02
    82 Broy./Diag. 0.10E+00    5.6     0.05425721      -149.8609144703  3.11E-02
    83 Broy./Diag. 0.10E+00    5.6     0.03016989      -149.8223736915  3.85E-02
    84 Broy./Diag. 0.10E+00    5.6     0.05894174      -149.7987195455  2.37E-02
    85 Broy./Diag. 0.10E+00    5.4     0.01755059      -149.7873910665  1.13E-02
    86 Broy./Diag. 0.10E+00    5.4     0.00973318      -149.7713243904  1.61E-02
    87 Broy./Diag. 0.10E+00    5.4     0.01580823      -149.7382502892  3.31E-02
    88 Broy./Diag. 0.10E+00    5.4     0.01193469      -149.7192003306  1.90E-02
    89 Broy./Diag. 0.10E+00    5.4     0.00892868      -149.7161867758  3.01E-03
    90 Broy./Diag. 0.10E+00    5.3     0.00170636      -149.7170103509 -8.24E-04
    91 Broy./Diag. 0.10E+00    5.4     0.00969410      -149.7130594547  3.95E-03
    92 Broy./Diag. 0.10E+00    5.6     0.00312046      -149.7156760749 -2.62E-03
    93 Broy./Diag. 0.10E+00    5.6     0.00167267      -149.7177016725 -2.03E-03
    94 Broy./Diag. 0.10E+00    5.6     0.00970491      -149.7200127797 -2.31E-03
    95 Broy./Diag. 0.10E+00    5.6     0.00059975      -149.7225761844 -2.56E-03
    96 Broy./Diag. 0.10E+00    5.7     0.00216155      -149.7230635069 -4.87E-04
    97 Broy./Diag. 0.10E+00    5.6     0.00342599      -149.7201478233  2.92E-03
    98 Broy./Diag. 0.10E+00    5.6     0.00280185      -149.7195530687  5.95E-04
    99 Broy./Diag. 0.10E+00    5.4     0.00459485      -149.7180812737  1.47E-03
   100 Broy./Diag. 0.10E+00    5.4     0.00071132      -149.7162097279  1.87E-03
   101 Broy./Diag. 0.10E+00    5.4     0.00077999      -149.7156446193  5.65E-04
   102 Broy./Diag. 0.10E+00    5.4     0.00152959      -149.7158326343 -1.88E-04
   103 Broy./Diag. 0.10E+00    5.3     0.00105512      -149.7152330976  6.00E-04
   104 Broy./Diag. 0.10E+00    5.3     0.00163920      -149.7148740834  3.59E-04
   105 Broy./Diag. 0.10E+00    5.4     0.00152245      -149.7147249978  1.49E-04
   106 Broy./Diag. 0.10E+00    5.5     0.00040553      -149.7147670801 -4.21E-05
   107 Broy./Diag. 0.10E+00    5.5     0.00104266      -149.7146676245  9.95E-05
   108 Broy./Diag. 0.10E+00    5.6     0.00086499      -149.7143862392  2.81E-04
   109 Broy./Diag. 0.10E+00    5.5     0.00070577      -149.7137974470  5.89E-04
   110 Broy./Diag. 0.10E+00    5.6     0.00040900      -149.7135860147  2.11E-04
   111 Broy./Diag. 0.10E+00    5.5     0.00038370      -149.7133999538  1.86E-04
   112 Broy./Diag. 0.10E+00    5.5     0.00019098      -149.7134554024 -5.54E-05
   113 Broy./Diag. 0.10E+00    5.5     0.00091162      -149.7137186509 -2.63E-04
   114 Broy./Diag. 0.10E+00    5.5     0.00011789      -149.7136278164  9.08E-05
   115 Broy./Diag. 0.10E+00    5.5     0.00009667      -149.7135321095  9.57E-05
   116 Broy./Diag. 0.10E+00    5.5     0.00024358      -149.7134604098  7.17E-05
   117 Broy./Diag. 0.10E+00    5.4     0.00017076      -149.7134034555  5.70E-05
   118 Broy./Diag. 0.10E+00    5.4     0.00005154      -149.7132823284  1.21E-04
   119 Broy./Diag. 0.10E+00    5.4     0.00029235      -149.7132268769  5.55E-05
   120 Broy./Diag. 0.10E+00    5.4     0.00024129      -149.7132601794 -3.33E-05
   121 Broy./Diag. 0.10E+00    5.6     0.00005507      -149.7133149658 -5.48E-05
   122 Broy./Diag. 0.10E+00    5.6     0.00013609      -149.7133037468  1.12E-05
   123 Broy./Diag. 0.10E+00    5.6     0.00012667      -149.7132824315  2.13E-05
   124 Broy./Diag. 0.10E+00    5.5     0.00002131      -149.7132765563  5.88E-06
   125 Broy./Diag. 0.10E+00    5.6     0.00016423      -149.7132455299  3.10E-05
   126 Broy./Diag. 0.10E+00    5.5     0.00019687      -149.7132386555  6.87E-06
   127 Broy./Diag. 0.10E+00    5.5     0.00016049      -149.7132542819 -1.56E-05
   128 Broy./Diag. 0.10E+00    5.5     0.00025830      -149.7132631302 -8.85E-06
   129 Broy./Diag. 0.10E+00    5.5     0.00046592      -149.7132587710  4.36E-06
   130 Broy./Diag. 0.10E+00    5.5     0.00072808      -149.7132622890 -3.52E-06
   131 Broy./Diag. 0.10E+00    5.5     0.00118436      -149.7132649524 -2.66E-06
   132 Broy./Diag. 0.10E+00    5.4     0.00186331      -149.7132682421 -3.29E-06
   133 Broy./Diag. 0.10E+00    5.4     0.00296903      -149.7132721488 -3.91E-06
   134 Broy./Diag. 0.10E+00    5.3     0.00477766      -149.7132777065 -5.56E-06
   135 Broy./Diag. 0.10E+00    5.3     0.00772352      -149.7132748054  2.90E-06
   136 Broy./Diag. 0.10E+00    5.7     0.01262070      -149.7132595786  1.52E-05
   137 Broy./Diag. 0.10E+00    5.6     0.02143901      -149.7132230034  3.66E-05
   138 Broy./Diag. 0.10E+00    5.6     0.03753371      -149.7130948531  1.28E-04
   139 Broy./Diag. 0.10E+00    5.6     0.06514086      -149.7128672310  2.28E-04
   140 Broy./Diag. 0.10E+00    5.5     0.11149496      -149.7122759727  5.91E-04
   141 Broy./Diag. 0.10E+00    5.6     0.17653801      -149.7107565100  1.52E-03
   142 Broy./Diag. 0.10E+00    5.4     0.23113977      -149.7072859567  3.47E-03
   143 Broy./Diag. 0.10E+00    5.4     0.22191024      -149.7007944858  6.49E-03
   144 Broy./Diag. 0.10E+00    5.4     0.18547998      -149.6916864205  9.11E-03
   145 Broy./Diag. 0.10E+00    5.4     0.18575895      -149.6823545911  9.33E-03
   146 Broy./Diag. 0.10E+00    5.3     0.15194093      -149.6749543178  7.40E-03
   147 Broy./Diag. 0.10E+00    5.4     0.11197150      -149.6699908530  4.96E-03
   148 Broy./Diag. 0.10E+00    5.3     0.07907644      -149.6670737838  2.92E-03
   149 Broy./Diag. 0.10E+00    5.3     0.05485582      -149.6655257207  1.55E-03
   150 Broy./Diag. 0.10E+00    5.3     0.03761535      -149.6648667715  6.59E-04
   151 Broy./Diag. 0.10E+00    5.6     0.02357667      -149.6658298961 -9.63E-04
   152 Broy./Diag. 0.10E+00    5.7     0.00363001      -149.6794354922 -1.36E-02
   153 Broy./Diag. 0.10E+00    5.7     0.01016287      -149.6723989203  7.04E-03
   154 Broy./Diag. 0.10E+00    5.6     0.04297893      -149.6649498357  7.45E-03
   155 Broy./Diag. 0.10E+00    5.6     0.10153357      -149.6494692317  1.55E-02
   156 Broy./Diag. 0.10E+00    5.6     0.18833159      -149.5905223151  5.89E-02
   157 Broy./Diag. 0.10E+00    5.5     0.21523759      -149.4484667388  1.42E-01
   158 Broy./Diag. 0.10E+00    5.6     0.16324507      -149.3130710338  1.35E-01
   159 Broy./Diag. 0.10E+00    5.4     0.10031015      -149.5104559140 -1.97E-01
   160 Broy./Diag. 0.10E+00    5.5     0.02723716      -149.8925587265 -3.82E-01
   161 Broy./Diag. 0.10E+00    5.3     0.04422607      -149.8287128029  6.38E-02
   162 Broy./Diag. 0.10E+00    5.3     0.08030279      -149.8387031711 -9.99E-03
   163 Broy./Diag. 0.10E+00    5.3     0.03923250      -149.8479963057 -9.29E-03
   164 Broy./Diag. 0.10E+00    5.3     0.05376092      -149.8334459660  1.46E-02
   165 Broy./Diag. 0.10E+00    5.4     0.09854949      -149.8006684310  3.28E-02
   166 Broy./Diag. 0.10E+00    5.7     0.13818507      -149.7961461012  4.52E-03
   167 Broy./Diag. 0.10E+00    5.5     0.16468648      -149.7969901466 -8.44E-04
   168 Broy./Diag. 0.10E+00    5.7     0.20211607      -149.7907908083  6.20E-03
   169 Broy./Diag. 0.10E+00    5.7     0.12695826      -149.7977223242 -6.93E-03
   170 Broy./Diag. 0.10E+00    5.6     0.03615415      -149.7932728807  4.45E-03
   171 Broy./Diag. 0.10E+00    5.6     0.03096428      -149.7970748714 -3.80E-03
   172 Broy./Diag. 0.10E+00    5.6     0.00479376      -149.7977416463 -6.67E-04
   173 Broy./Diag. 0.10E+00    5.5     0.01671902      -149.7966658955  1.08E-03
   174 Broy./Diag. 0.10E+00    5.3     0.02007288      -149.7869317208  9.73E-03
   175 Broy./Diag. 0.10E+00    5.4     0.01937668      -149.7844633064  2.47E-03
   176 Broy./Diag. 0.10E+00    5.4     0.04764249      -149.7771932150  7.27E-03
   177 Broy./Diag. 0.10E+00    5.3     0.06551785      -149.7865610353 -9.37E-03
   178 Broy./Diag. 0.10E+00    5.3     0.12494446      -149.7845951790  1.97E-03
   179 Broy./Diag. 0.10E+00    5.3     0.16357183      -149.7856439692 -1.05E-03
   180 Broy./Diag. 0.10E+00    5.3     0.15982160      -149.7905366909 -4.89E-03
   181 Broy./Diag. 0.10E+00    5.3     0.22394227      -149.7651423940  2.54E-02
   182 Broy./Diag. 0.10E+00    5.7     0.30730948      -149.7570090882  8.13E-03
   183 Broy./Diag. 0.10E+00    5.7     0.29646389      -149.7864677373 -2.95E-02
   184 Broy./Diag. 0.10E+00    5.6     0.18417183      -149.7914673925 -5.00E-03
   185 Broy./Diag. 0.10E+00    5.7     0.10140479      -149.7882230245  3.24E-03
   186 Broy./Diag. 0.10E+00    5.6     0.01453969      -149.7697978475  1.84E-02
   187 Broy./Diag. 0.10E+00    5.6     0.00501303      -149.7638426351  5.96E-03
   188 Broy./Diag. 0.10E+00    5.5     0.01873170      -149.7679879361 -4.15E-03
   189 Broy./Diag. 0.10E+00    5.5     0.04579715      -149.7621477568  5.84E-03
   190 Broy./Diag. 0.10E+00    5.4     0.06169834      -149.7755506130 -1.34E-02
   191 Broy./Diag. 0.10E+00    5.4     0.08326867      -149.7757140006 -1.63E-04
   192 Broy./Diag. 0.10E+00    5.3     0.10884621      -149.7790642547 -3.35E-03
   193 Broy./Diag. 0.10E+00    5.5     0.09879209      -149.7904113227 -1.13E-02
   194 Broy./Diag. 0.10E+00    5.3     0.09867123      -149.7914316958 -1.02E-03
   195 Broy./Diag. 0.10E+00    5.3     0.01730122      -149.7894119630  2.02E-03
   196 Broy./Diag. 0.10E+00    5.3     0.02221032      -149.7801643359  9.25E-03
   197 Broy./Diag. 0.10E+00    5.3     0.02478099      -149.7738193023  6.35E-03
   198 Broy./Diag. 0.10E+00    5.4     0.05133293      -149.7568684405  1.70E-02
   199 Broy./Diag. 0.10E+00    5.6     0.14787213      -149.7339804848  2.29E-02
   200 Broy./Diag. 0.10E+00    5.6     0.11029465      -149.7470319955 -1.31E-02
   201 Broy./Diag. 0.10E+00    5.6     0.11125266      -149.7478647893 -8.33E-04
   202 Broy./Diag. 0.10E+00    5.5     0.22518040      -149.7294780662  1.84E-02
   203 Broy./Diag. 0.10E+00    5.5     0.25926232      -149.7272435133  2.23E-03
   204 Broy./Diag. 0.10E+00    5.5     0.21029246      -149.7236145314  3.63E-03
   205 Broy./Diag. 0.10E+00    5.4     0.15803433      -149.7153723670  8.24E-03
   206 Broy./Diag. 0.10E+00    5.4     0.10752188      -149.7058916570  9.48E-03
   207 Broy./Diag. 0.10E+00    5.4     0.08671997      -149.6953471373  1.05E-02
   208 Broy./Diag. 0.10E+00    5.3     0.08084973      -149.6727326508  2.26E-02
   209 Broy./Diag. 0.10E+00    5.4     0.02621180      -149.6452563330  2.75E-02
   210 Broy./Diag. 0.10E+00    5.3     0.12238242      -149.6701620567 -2.49E-02
   211 Broy./Diag. 0.10E+00    5.3     0.14199725      -149.6741519105 -3.99E-03
   212 Broy./Diag. 0.10E+00    5.3     0.15527776      -149.6758539042 -1.70E-03
   213 Broy./Diag. 0.10E+00    5.3     0.13670650      -149.7135722063 -3.77E-02
   214 Broy./Diag. 0.10E+00    5.3     0.07977151      -149.7591099884 -4.55E-02
   215 Broy./Diag. 0.10E+00    5.5     0.02993361      -149.7801557259 -2.10E-02
   216 Broy./Diag. 0.10E+00    5.6     0.00855103      -149.7925964128 -1.24E-02
   217 Broy./Diag. 0.10E+00    5.7     0.02006124      -149.8049565948 -1.24E-02
   218 Broy./Diag. 0.10E+00    5.6     0.00233799      -149.8016518147  3.30E-03
   219 Broy./Diag. 0.10E+00    5.6     0.01206496      -149.7881635064  1.35E-02
   220 Broy./Diag. 0.10E+00    5.5     0.02166932      -149.7666361047  2.15E-02
   221 Broy./Diag. 0.10E+00    5.4     0.03554483      -149.7564941412  1.01E-02
   222 Broy./Diag. 0.10E+00    5.4     0.03953033      -149.7535682051  2.93E-03
   223 Broy./Diag. 0.10E+00    5.4     0.25740408      -149.7312866850  2.23E-02
   224 Broy./Diag. 0.10E+00    5.4     0.31926128      -149.7418399758 -1.06E-02
   225 Broy./Diag. 0.10E+00    5.3     0.20870289      -149.7385338699  3.31E-03
   226 Broy./Diag. 0.10E+00    5.3     0.16705892      -149.7213105771  1.72E-02
   227 Broy./Diag. 0.10E+00    5.4     0.14570559      -149.7068193729  1.45E-02
   228 Broy./Diag. 0.10E+00    5.6     0.14790399      -149.7142920257 -7.47E-03
   229 Broy./Diag. 0.10E+00    5.6     0.12644839      -149.7147605814 -4.69E-04
   230 Broy./Diag. 0.10E+00    5.6     0.09096557      -149.7025958350  1.22E-02
   231 Broy./Diag. 0.10E+00    5.6     0.08533992      -149.6937667102  8.83E-03
   232 Broy./Diag. 0.10E+00    5.5     0.05921776      -149.6823744684  1.14E-02
   233 Broy./Diag. 0.10E+00    5.5     0.02604930      -149.6785104437  3.86E-03
   234 Broy./Diag. 0.10E+00    5.5     0.01890760      -149.6794772590 -9.67E-04
   235 Broy./Diag. 0.10E+00    5.6     0.04180817      -149.6608218827  1.87E-02
   236 Broy./Diag. 0.10E+00    5.4     0.04045831      -149.6611827126 -3.61E-04
   237 Broy./Diag. 0.10E+00    5.4     0.01129376      -149.6815090529 -2.03E-02
   238 Broy./Diag. 0.10E+00    5.3     0.02329203      -149.7018859561 -2.04E-02
   239 Broy./Diag. 0.10E+00    5.3     0.01619842      -149.7146221216 -1.27E-02
   240 Broy./Diag. 0.10E+00    5.3     0.06110271      -149.7203772802 -5.76E-03
   241 Broy./Diag. 0.10E+00    5.4     0.04548593      -149.7297128406 -9.34E-03
   242 Broy./Diag. 0.10E+00    5.4     0.05479972      -149.7334023213 -3.69E-03
   243 Broy./Diag. 0.10E+00    5.6     0.16416714      -149.7262864883  7.12E-03
   244 Broy./Diag. 0.10E+00    5.7     0.20416245      -149.7292310614 -2.94E-03
   245 Broy./Diag. 0.10E+00    5.5     0.21445201      -149.7247609272  4.47E-03
   246 Broy./Diag. 0.10E+00    5.6     0.19152056      -149.7136892507  1.11E-02
   247 Broy./Diag. 0.10E+00    5.5     0.20268783      -149.6977711536  1.59E-02
   248 Broy./Diag. 0.10E+00    5.6     0.16132850      -149.6881295905  9.64E-03
   249 Broy./Diag. 0.10E+00    5.5     0.11926506      -149.6826024767  5.53E-03
   250 Broy./Diag. 0.10E+00    5.5     0.06820010      -149.6738636154  8.74E-03
   251 Broy./Diag. 0.10E+00    5.4     0.12326924      -149.6853339254 -1.15E-02
   252 Broy./Diag. 0.10E+00    5.4     0.10177434      -149.6914999133 -6.17E-03
   253 Broy./Diag. 0.10E+00    5.3     0.10847904      -149.6938449638 -2.35E-03
   254 Broy./Diag. 0.10E+00    5.4     0.10678894      -149.6996524287 -5.81E-03
   255 Broy./Diag. 0.10E+00    5.3     0.08974723      -149.7131130891 -1.35E-02
   256 Broy./Diag. 0.10E+00    5.3     0.07742955      -149.7233186040 -1.02E-02
   257 Broy./Diag. 0.10E+00    5.5     0.07891335      -149.7342459429 -1.09E-02
   258 Broy./Diag. 0.10E+00    5.6     0.09119536      -149.7467371696 -1.25E-02
   259 Broy./Diag. 0.10E+00    5.6     0.05066802      -149.7413152932  5.42E-03
   260 Broy./Diag. 0.10E+00    5.6     0.01395880      -149.7371568408  4.16E-03
   261 Broy./Diag. 0.10E+00    5.4     0.03743590      -149.7227869442  1.44E-02
   262 Broy./Diag. 0.10E+00    5.6     0.02431262      -149.7196013944  3.19E-03
   263 Broy./Diag. 0.10E+00    5.6     0.04322764      -149.7147710044  4.83E-03
   264 Broy./Diag. 0.10E+00    5.6     0.01225362      -149.7068094293  7.96E-03
   265 Broy./Diag. 0.10E+00    5.4     0.00702532      -149.7057678833  1.04E-03
   266 Broy./Diag. 0.10E+00    5.5     0.00684445      -149.7078074850 -2.04E-03
   267 Broy./Diag. 0.10E+00    5.3     0.03034193      -149.7160103130 -8.20E-03
   268 Broy./Diag. 0.10E+00    5.3     0.00673635      -149.7212485058 -5.24E-03
   269 Broy./Diag. 0.10E+00    5.3     0.00418609      -149.7211002467  1.48E-04
   270 Broy./Diag. 0.10E+00    5.3     0.00376716      -149.7196763289  1.42E-03
   271 Broy./Diag. 0.10E+00    5.3     0.00281204      -149.7200524501 -3.76E-04
   272 Broy./Diag. 0.10E+00    5.3     0.00342866      -149.7206050081 -5.53E-04
   273 Broy./Diag. 0.10E+00    5.4     0.00456540      -149.7206882079 -8.32E-05
   274 Broy./Diag. 0.10E+00    5.5     0.00175048      -149.7174151460  3.27E-03
   275 Broy./Diag. 0.10E+00    5.6     0.00184293      -149.7134529614  3.96E-03
   276 Broy./Diag. 0.10E+00    5.6     0.00055883      -149.7117789237  1.67E-03
   277 Broy./Diag. 0.10E+00    5.5     0.00143470      -149.7118883874 -1.09E-04
   278 Broy./Diag. 0.10E+00    5.5     0.00202502      -149.7122090663 -3.21E-04
   279 Broy./Diag. 0.10E+00    5.7     0.00396991      -149.7128236258 -6.15E-04
   280 Broy./Diag. 0.10E+00    5.4     0.00202928      -149.7135695379 -7.46E-04
   281 Broy./Diag. 0.10E+00    5.5     0.00032191      -149.7140509084 -4.81E-04
   282 Broy./Diag. 0.10E+00    5.3     0.00026079      -149.7141070568 -5.61E-05
   283 Broy./Diag. 0.10E+00    5.3     0.00203977      -149.7135343656  5.73E-04
   284 Broy./Diag. 0.10E+00    5.4     0.00203399      -149.7132738333  2.61E-04
   285 Broy./Diag. 0.10E+00    5.7     0.00079826      -149.7133607160 -8.69E-05
   286 Broy./Diag. 0.10E+00    5.6     0.00060673      -149.7135644534 -2.04E-04
   287 Broy./Diag. 0.10E+00    5.6     0.00064836      -149.7137996972 -2.35E-04
   288 Broy./Diag. 0.10E+00    5.4     0.00023702      -149.7138786643 -7.90E-05
   289 Broy./Diag. 0.10E+00    5.5     0.00104322      -149.7138226294  5.60E-05
   290 Broy./Diag. 0.10E+00    5.6     0.00154587      -149.7138703341 -4.77E-05
   291 Broy./Diag. 0.10E+00    5.5     0.00111260      -149.7140013974 -1.31E-04
   292 Broy./Diag. 0.10E+00    5.5     0.00109353      -149.7140858553 -8.45E-05
   293 Broy./Diag. 0.10E+00    5.5     0.00223395      -149.7141027538 -1.69E-05
   294 Broy./Diag. 0.10E+00    5.5     0.00366135      -149.7140969347  5.82E-06
   295 Broy./Diag. 0.10E+00    5.4     0.00595630      -149.7140815118  1.54E-05
   296 Broy./Diag. 0.10E+00    5.4     0.00973394      -149.7141045525 -2.30E-05
   297 Broy./Diag. 0.10E+00    5.4     0.01600668      -149.7141347902 -3.02E-05
   298 Broy./Diag. 0.10E+00    5.3     0.02726001      -149.7140167910  1.18E-04
   299 Broy./Diag. 0.10E+00    5.3     0.04029235      -149.7138674616  1.49E-04
   300 Broy./Diag. 0.10E+00    5.3     0.06198005      -149.7137538331  1.14E-04
   301 Broy./Diag. 0.10E+00    5.5     0.08804086      -149.7132027729  5.51E-04
   302 Broy./Diag. 0.10E+00    5.6     0.14420340      -149.7117166136  1.49E-03
   303 Broy./Diag. 0.10E+00    5.6     0.22047628      -149.7083662832  3.35E-03
   304 Broy./Diag. 0.10E+00    5.5     0.25348642      -149.7020324006  6.33E-03
   305 Broy./Diag. 0.10E+00    5.5     0.21194672      -149.6930625511  8.97E-03
   306 Broy./Diag. 0.10E+00    5.5     0.14676966      -149.6837289231  9.33E-03
   307 Broy./Diag. 0.10E+00    5.5     0.13762887      -149.6760359981  7.69E-03
   308 Broy./Diag. 0.10E+00    5.6     0.11477687      -149.6707554491  5.28E-03
   309 Broy./Diag. 0.10E+00    5.4     0.08851349      -149.6681290223  2.63E-03
   310 Broy./Diag. 0.10E+00    5.5     0.06568892      -149.6665676999  1.56E-03
   311 Broy./Diag. 0.10E+00    5.4     0.04951155      -149.6656168070  9.51E-04
   312 Broy./Diag. 0.10E+00    5.4     0.04504820      -149.6653338254  2.83E-04
   313 Broy./Diag. 0.10E+00    5.4     0.07142527      -149.6662430476 -9.09E-04
   314 Broy./Diag. 0.10E+00    5.3     0.12472598      -149.6634275044  2.82E-03
   315 Broy./Diag. 0.10E+00    5.4     0.14831826      -149.6437816182  1.96E-02
   316 Broy./Diag. 0.10E+00    5.3     0.16280619      -149.6078940365  3.59E-02
   317 Broy./Diag. 0.10E+00    5.4     0.12653510      -149.5855681843  2.23E-02
   318 Broy./Diag. 0.10E+00    5.6     0.08766417      -149.6159857943 -3.04E-02
   319 Broy./Diag. 0.10E+00    5.5     0.04863475      -149.6371357037 -2.11E-02
   320 Broy./Diag. 0.10E+00    5.5     0.04624842      -149.6998927057 -6.28E-02
   321 Broy./Diag. 0.10E+00    5.6     0.10207172      -149.7490707345 -4.92E-02
   322 Broy./Diag. 0.10E+00    5.5     0.12048330      -149.7861863079 -3.71E-02
   323 Broy./Diag. 0.10E+00    5.6     0.21176705      -149.7897968922 -3.61E-03
   324 Broy./Diag. 0.10E+00    5.5     0.29300726      -149.7852694187  4.53E-03
   325 Broy./Diag. 0.10E+00    5.5     0.06239791      -149.7825953876  2.67E-03
   326 Broy./Diag. 0.10E+00    5.5     0.06839684      -149.7948183054 -1.22E-02
   327 Broy./Diag. 0.10E+00    5.5     0.04542682      -149.8096833840 -1.49E-02
   328 Broy./Diag. 0.10E+00    5.4     0.11793432      -149.7989845111  1.07E-02
   329 Broy./Diag. 0.10E+00    5.4     0.11105663      -149.8344153486 -3.54E-02
   330 Broy./Diag. 0.10E+00    5.4     0.05338773      -149.8679713468 -3.36E-02
   331 Broy./Diag. 0.10E+00    5.3     0.01180933      -149.8715281868 -3.56E-03
   332 Broy./Diag. 0.10E+00    5.3     0.03546224      -149.8701746339  1.35E-03
   333 Broy./Diag. 0.10E+00    5.3     0.05265937      -149.8616228580  8.55E-03
   334 Broy./Diag. 0.10E+00    5.3     0.04357279      -149.8321630291  2.95E-02
   335 Broy./Diag. 0.10E+00    5.3     0.08182451      -149.7774401931  5.47E-02
   336 Broy./Diag. 0.10E+00    5.5     0.07775381      -149.7856400390 -8.20E-03
   337 Broy./Diag. 0.10E+00    5.6     0.31054442      -149.6970958024  8.85E-02
   338 Broy./Diag. 0.10E+00    5.6     0.20194620      -149.7630482372 -6.60E-02
   339 Broy./Diag. 0.10E+00    5.6     0.15169704      -149.7815942296 -1.85E-02
   340 Broy./Diag. 0.10E+00    5.5     0.19694476      -149.8088887558 -2.73E-02
   341 Broy./Diag. 0.10E+00    5.5     0.27445684      -149.8059398381  2.95E-03
   342 Broy./Diag. 0.10E+00    5.4     0.23159829      -149.7971098617  8.83E-03
   343 Broy./Diag. 0.10E+00    5.4     0.12924260      -149.7216607008  7.54E-02
   344 Broy./Diag. 0.10E+00    5.4     0.26786882      -149.7346042937 -1.29E-02
   345 Broy./Diag. 0.10E+00    5.5     0.17304334      -149.7461947178 -1.16E-02
   346 Broy./Diag. 0.10E+00    5.3     0.09352236      -149.7538893274 -7.69E-03
   347 Broy./Diag. 0.10E+00    5.3     0.10029145      -149.7547012293 -8.12E-04
   348 Broy./Diag. 0.10E+00    5.3     0.10053472      -149.7546815326  1.97E-05
   349 Broy./Diag. 0.10E+00    5.3     0.07383449      -149.7452497609  9.43E-03
   350 Broy./Diag. 0.10E+00    5.4     0.03744589      -149.7403793396  4.87E-03
   351 Broy./Diag. 0.10E+00    5.6     0.13513990      -149.7589471224 -1.86E-02
   352 Broy./Diag. 0.10E+00    5.6     0.13549798      -149.7655289327 -6.58E-03
   353 Broy./Diag. 0.10E+00    5.7     0.14059230      -149.7675846188 -2.06E-03
   354 Broy./Diag. 0.10E+00    5.6     0.14192455      -149.7724202620 -4.84E-03
   355 Broy./Diag. 0.10E+00    5.6     0.05145058      -149.7591536801  1.33E-02
   356 Broy./Diag. 0.10E+00    5.5     0.11583718      -149.7528143539  6.34E-03
   357 Broy./Diag. 0.10E+00    5.4     0.13970960      -149.7551993076 -2.38E-03
   358 Broy./Diag. 0.10E+00    5.4     0.05089000      -149.7667497436 -1.16E-02
   359 Broy./Diag. 0.10E+00    5.3     0.05683864      -149.7675511305 -8.01E-04
   360 Broy./Diag. 0.10E+00    5.3     0.13276706      -149.7636119221  3.94E-03
   361 Broy./Diag. 0.10E+00    5.3     0.18610303      -149.7588805566  4.73E-03
   362 Broy./Diag. 0.10E+00    5.3     0.18614204      -149.7483985845  1.05E-02
   363 Broy./Diag. 0.10E+00    5.3     0.09687557      -149.7436873439  4.71E-03
   364 Broy./Diag. 0.10E+00    5.4     0.04929715      -149.7514171390 -7.73E-03
   365 Broy./Diag. 0.10E+00    5.3     0.04596341      -149.7551196452 -3.70E-03
   366 Broy./Diag. 0.10E+00    5.4     0.07678852      -149.7464332686  8.69E-03
   367 Broy./Diag. 0.10E+00    5.5     0.11891525      -149.7488980202 -2.46E-03
   368 Broy./Diag. 0.10E+00    5.6     0.13877635      -149.7436304966  5.27E-03
   369 Broy./Diag. 0.10E+00    5.7     0.18143929      -149.7435294835  1.01E-04
   370 Broy./Diag. 0.10E+00    5.6     0.21736033      -149.7396881739  3.84E-03
   371 Broy./Diag. 0.10E+00    5.5     0.16396016      -149.7439060188 -4.22E-03
   372 Broy./Diag. 0.10E+00    5.5     0.11562115      -149.7382861044  5.62E-03
   373 Broy./Diag. 0.10E+00    5.5     0.06565057      -149.7365082827  1.78E-03
   374 Broy./Diag. 0.10E+00    5.4     0.05089812      -149.7398147747 -3.31E-03
   375 Broy./Diag. 0.10E+00    5.3     0.06705569      -149.7396250583  1.90E-04
   376 Broy./Diag. 0.10E+00    5.4     0.08257265      -149.7329054563  6.72E-03
   377 Broy./Diag. 0.10E+00    5.4     0.14882282      -149.7117047633  2.12E-02
   378 Broy./Diag. 0.10E+00    5.4     0.20517073      -149.6810945932  3.06E-02
   379 Broy./Diag. 0.10E+00    5.3     0.18471774      -149.6596867629  2.14E-02
   380 Broy./Diag. 0.10E+00    5.3     0.10215891      -149.6866258169 -2.69E-02
   381 Broy./Diag. 0.10E+00    5.3     0.03091769      -149.7903077796 -1.04E-01
   382 Broy./Diag. 0.10E+00    5.5     0.05052438      -149.8258477902 -3.55E-02
   383 Broy./Diag. 0.10E+00    5.6     0.06366030      -149.8593868418 -3.35E-02
   384 Broy./Diag. 0.10E+00    5.5     0.00613343      -149.8492416193  1.01E-02
   385 Broy./Diag. 0.10E+00    5.6     0.05862029      -149.8238534378  2.54E-02
   386 Broy./Diag. 0.10E+00    5.5     0.01705197      -149.7941351986  2.97E-02
   387 Broy./Diag. 0.10E+00    5.5     0.08484275      -149.7653466008  2.88E-02
   388 Broy./Diag. 0.10E+00    5.6     0.11542873      -149.7508153198  1.45E-02
   389 Broy./Diag. 0.10E+00    5.4     0.11158121      -149.7458388838  4.98E-03
   390 Broy./Diag. 0.10E+00    5.4     0.19886696      -149.7406150048  5.22E-03
   391 Broy./Diag. 0.10E+00    5.4     0.17316627      -149.7425670785 -1.95E-03
   392 Broy./Diag. 0.10E+00    5.4     0.18057457      -149.7377872998  4.78E-03
   393 Broy./Diag. 0.10E+00    5.4     0.17629889      -149.7345015894  3.29E-03
   394 Broy./Diag. 0.10E+00    5.3     0.18653270      -149.7390827679 -4.58E-03
   395 Broy./Diag. 0.10E+00    5.3     0.14079467      -149.7341784404  4.90E-03
   396 Broy./Diag. 0.10E+00    5.4     0.09463235      -149.7094108025  2.48E-02
   397 Broy./Diag. 0.10E+00    5.6     0.08040962      -149.6846991206  2.47E-02
   398 Broy./Diag. 0.10E+00    5.6     0.09326686      -149.6790823012  5.62E-03
   399 Broy./Diag. 0.10E+00    5.6     0.11908304      -149.6826660464 -3.58E-03
   400 Broy./Diag. 0.10E+00    5.6     0.15087606      -149.6911737523 -8.51E-03
   401 Broy./Diag. 0.10E+00    5.4     0.12521345      -149.7069612251 -1.58E-02
   402 Broy./Diag. 0.10E+00    5.4     0.08480881      -149.7196918754 -1.27E-02
   403 Broy./Diag. 0.10E+00    5.5     0.04797454      -149.7431228437 -2.34E-02
   404 Broy./Diag. 0.10E+00    5.5     0.02161070      -149.7681730293 -2.51E-02
[...]
   433 Broy./Diag. 0.10E+00    5.7     0.00167269      -149.7120157857 -1.09E-03
   434 Broy./Diag. 0.10E+00    5.5     0.00124157      -149.7133400553 -1.32E-03
   435 Broy./Diag. 0.10E+00    5.6     0.00023052      -149.7140199536 -6.80E-04
   436 Broy./Diag. 0.10E+00    5.5     0.00057856      -149.7141982953 -1.78E-04
   437 Broy./Diag. 0.10E+00    5.6     0.00014748      -149.7141255906  7.27E-05
   438 Broy./Diag. 0.10E+00    5.5     0.00045847      -149.7139584747  1.67E-04
   439 Broy./Diag. 0.10E+00    5.5     0.00012844      -149.7137420021  2.16E-04
   440 Broy./Diag. 0.10E+00    5.4     0.00034254      -149.7135189425  2.23E-04
   441 Broy./Diag. 0.10E+00    5.4     0.00035958      -149.7133697722  1.49E-04
   442 Broy./Diag. 0.10E+00    5.4     0.00109160      -149.7130844681  2.85E-04
   443 Broy./Diag. 0.10E+00    5.3     0.00055829      -149.7129460154  1.38E-04
   444 Broy./Diag. 0.10E+00    5.3     0.00023709      -149.7128953399  5.07E-05
   445 Broy./Diag. 0.10E+00    5.3     0.00032535      -149.7129105766 -1.52E-05
   446 Broy./Diag. 0.10E+00    5.3     0.00040524      -149.7130328874 -1.22E-04
   447 Broy./Diag. 0.10E+00    5.3     0.00054077      -149.7131347176 -1.02E-04
   448 Broy./Diag. 0.10E+00    5.6     0.00074893      -149.7132706344 -1.36E-04
   449 Broy./Diag. 0.10E+00    5.7     0.00071722      -149.7133879023 -1.17E-04
   450 Broy./Diag. 0.10E+00    5.5     0.00066724      -149.7134445716 -5.67E-05
   451 Broy./Diag. 0.10E+00    5.6     0.00153260      -149.7134442937  2.78E-07
   452 Broy./Diag. 0.10E+00    5.6     0.00252157      -149.7134593325 -1.50E-05
   453 Broy./Diag. 0.10E+00    5.5     0.00421991      -149.7134827045 -2.34E-05
   454 Broy./Diag. 0.10E+00    5.5     0.00688429      -149.7134833906 -6.86E-07
   455 Broy./Diag. 0.10E+00    5.4     0.01048356      -149.7134207910  6.26E-05
   456 Broy./Diag. 0.10E+00    5.5     0.01640926      -149.7132454160  1.75E-04
   457 Broy./Diag. 0.10E+00    5.4     0.02851633      -149.7132033075  4.21E-05
   458 Broy./Diag. 0.10E+00    5.3     0.04948532      -149.7131494454  5.39E-05
   459 Broy./Diag. 0.10E+00    5.3     0.07915213      -149.7130833931  6.61E-05
   460 Broy./Diag. 0.10E+00    5.3     0.12321794      -149.7125303159  5.53E-04
   461 Broy./Diag. 0.10E+00    5.3     0.16817659      -149.7109972085  1.53E-03
   462 Broy./Diag. 0.10E+00    5.4     0.17562663      -149.7074766833  3.52E-03
   463 Broy./Diag. 0.10E+00    5.6     0.22842464      -149.7008633010  6.61E-03
   464 Broy./Diag. 0.10E+00    5.6     0.23528953      -149.6915884880  9.27E-03
   465 Broy./Diag. 0.10E+00    5.6     0.18935646      -149.6819665978  9.62E-03
   466 Broy./Diag. 0.10E+00    5.6     0.13008188      -149.6746854144  7.28E-03
   467 Broy./Diag. 0.10E+00    5.6     0.08215769      -149.6697881380  4.90E-03
   468 Broy./Diag. 0.10E+00    5.5     0.06435717      -149.6670980024  2.69E-03
   469 Broy./Diag. 0.10E+00    5.4     0.05017418      -149.6659077605  1.19E-03
   470 Broy./Diag. 0.10E+00    5.5     0.03637853      -149.6661906721 -2.83E-04
   471 Broy./Diag. 0.10E+00    5.4     0.01592372      -149.6732565692 -7.07E-03
   472 Broy./Diag. 0.10E+00    5.4     0.05387500      -149.6587767143  1.45E-02
   473 Broy./Diag. 0.10E+00    5.4     0.09797457      -149.6446476810  1.41E-02
   474 Broy./Diag. 0.10E+00    5.3     0.16743263      -149.6190539449  2.56E-02
   475 Broy./Diag. 0.10E+00    5.3     0.21290578      -149.5558933263  6.32E-02
   476 Broy./Diag. 0.10E+00    5.3     0.15935204      -149.4781274734  7.78E-02

 *** WARNING in pw/ps_wavelet_methods.F:238 :: Density non-zero on the ***
 *** edges of the unit cell: wrong results in WAVELET solver           ***

   477 Broy./Diag. 0.10E+00    5.3     0.09451462      -149.4541697171  2.40E-02

 *** WARNING in pw/ps_wavelet_methods.F:238 :: Density non-zero on the ***
 *** edges of the unit cell: wrong results in WAVELET solver           ***

   478 Broy./Diag. 0.10E+00    5.3     0.05812246      -149.5084445854 -5.43E-02
   479 Broy./Diag. 0.10E+00    5.4     0.07153863      -150.1950586841 -6.87E-01

 *** WARNING in pw/ps_wavelet_methods.F:238 :: Density non-zero on the ***
 *** edges of the unit cell: wrong results in WAVELET solver           ***

   480 Broy./Diag. 0.10E+00    5.6     0.07588451      -150.4714160915 -2.76E-01

 *** WARNING in pw/ps_wavelet_methods.F:238 :: Density non-zero on the ***
 *** edges of the unit cell: wrong results in WAVELET solver           ***

   481 Broy./Diag. 0.10E+00    5.6     0.14754138      -150.4904653373 -1.90E-02

 *** WARNING in pw/ps_wavelet_methods.F:238 :: Density non-zero on the ***
 *** edges of the unit cell: wrong results in WAVELET solver           ***

   482 Broy./Diag. 0.10E+00    5.7     0.29589281      -150.4373893048  5.31E-02

 *** WARNING in pw/ps_wavelet_methods.F:238 :: Density non-zero on the ***
 *** edges of the unit cell: wrong results in WAVELET solver           ***

   483 Broy./Diag. 0.10E+00    5.5     0.40631256      -150.2078586825  2.30E-01
   484 Broy./Diag. 0.10E+00    5.5     0.07789612      -150.1323000693  7.56E-02
   485 Broy./Diag. 0.10E+00    5.6     0.03468285      -150.1063325586  2.60E-02
   486 Broy./Diag. 0.10E+00    5.4     0.08871476      -150.0466571699  5.97E-02

 *** WARNING in pw/ps_wavelet_methods.F:238 :: Density non-zero on the ***
 *** edges of the unit cell: wrong results in WAVELET solver           ***

   487 Broy./Diag. 0.10E+00    5.4     0.11833586      -149.9944368611  5.22E-02

 *** WARNING in pw/ps_wavelet_methods.F:238 :: Density non-zero on the ***
 *** edges of the unit cell: wrong results in WAVELET solver           ***

   488 Broy./Diag. 0.10E+00    5.4     0.04468667      -149.9852687799  9.17E-03
   489 Broy./Diag. 0.10E+00    5.4     0.11486945      -149.9526863959  3.26E-02
   490 Broy./Diag. 0.10E+00    5.3     0.06890005      -149.8962889634  5.64E-02
   491 Broy./Diag. 0.10E+00    5.4     0.04188976      -149.8051658370  9.11E-02
   492 Broy./Diag. 0.10E+00    5.3     0.00805207      -149.7791985545  2.60E-02
   493 Broy./Diag. 0.10E+00    5.3     0.01012594      -149.7695768736  9.62E-03
   494 Broy./Diag. 0.10E+00    5.6     0.03921439      -149.7717351601 -2.16E-03
   495 Broy./Diag. 0.10E+00    5.6     0.01985573      -149.7818581075 -1.01E-02
   496 Broy./Diag. 0.10E+00    5.6     0.00765082      -149.7794236536  2.43E-03
   497 Broy./Diag. 0.10E+00    5.6     0.00787080      -149.7711764762  8.25E-03
   498 Broy./Diag. 0.10E+00    5.5     0.01574299      -149.7583868202  1.28E-02
   499 Broy./Diag. 0.10E+00    5.5     0.00637826      -149.7420244579  1.64E-02
   500 Broy./Diag. 0.10E+00    5.4     0.01305346      -149.7313123812  1.07E-02

  Leaving inner SCF loop after reaching   500 steps.


  Electronic density on regular grids:        -12.0953133849        3.9046866151
  Core density on regular grids:               16.0000000000        0.0000000000
  Hard and soft densities (Lebedev):          -22.9554288378      -19.0506980583
  Total Rho_soft + Rho1_hard - Rho1_soft      -16.0000441643
  Total charge density (r-space):              -0.0000441643
  Total Rho_soft + Rho0_soft (g-space):        -0.0000443670

  Overlap energy of the core charge distribution:               0.00000000200246
  Self energy of the core charge distribution:               -145.82024045573709
  Core Hamiltonian energy:                                    -14.80934854046681
  Hartree energy:                                              27.79767191183697
  Exchange-correlation energy:                                 -5.21955535082305
  Hartree-Fock Exchange energy:                                -4.03194744502672

  GAPW| Exc from hard and soft atomic rho1:                    -7.44254890388354
  GAPW| local Eh = 1 center integrals:                         -0.20534359906765

  Total energy:                                              -149.73131238116542

 *******************************************************************************
 *   ___                                                                       *
 *  /   \                                                                      *
 * [ABORT]                                                                     *
 *  \___/     SCF run NOT converged. To continue the calculation regardless,   *
 *    |             please set the keyword IGNORE_CONVERGENCE_FAILURE.         *
 *  O/|                                                                        *
 * /| |                                                                        *
 * / \                                                            qs_scf.F:611 *
 *******************************************************************************


 ===== Routine Calling Stack ===== 

            3 scf_env_do_scf
            2 qs_energies
            1 CP2K

 *******************************************************************************
 *   ___                                                                       *
 *  /   \                                                                      *
 * [ABORT]                                                                     *
 *  \___/     SCF run NOT converged. To continue the calculation regardless,   *
 *    |             please set the keyword IGNORE_CONVERGENCE_FAILURE.         *
 *  O/|                                                                        *
 * /| |                                                                        *
 * / \                                                            qs_scf.F:611 *
 *******************************************************************************


 ===== Routine Calling Stack ===== 

            3 scf_env_do_scf
            2 qs_energies
            1 CP2K

 *******************************************************************************
 *   ___                                                                       *
 *  /   \                                                                      *
 * [ABORT]                                                                     *
 *  \___/     SCF run NOT converged. To continue the calculation regardless,   *
 *    |             please set the keyword IGNORE_CONVERGENCE_FAILURE.         *
 *  O/|                                                                        *
 * /| |                                                                        *
 * / \                                                            qs_scf.F:611 *
 *******************************************************************************


 ===== Routine Calling Stack ===== 

            3 scf_env_do_scf
            2 qs_energies
            1 CP2K

 *******************************************************************************
 *   ___                                                                       *
 *  /   \                                                                      *
 * [ABORT]                                                                     *
 *  \___/     SCF run NOT converged. To continue the calculation regardless,   *
 *    |             please set the keyword IGNORE_CONVERGENCE_FAILURE.         *
 *  O/|                                                                        *
 * /| |                                                                        *
 * / \                                                            qs_scf.F:611 *
 *******************************************************************************


 ===== Routine Calling Stack ===== 

            3 scf_env_do_scf
            2 qs_energies
            1 CP2K

 *******************************************************************************
 *   ___                                                                       *
 *  /   \                                                                      *
 * [ABORT]                                                                     *
 *  \___/     SCF run NOT converged. To continue the calculation regardless,   *
 *    |             please set the keyword IGNORE_CONVERGENCE_FAILURE.         *
 *  O/|                                                                        *
 * /| |                                                                        *
 * / \                                                            qs_scf.F:611 *
 *******************************************************************************


 ===== Routine Calling Stack ===== 

            3 scf_env_do_scf
            2 qs_energies
            1 CP2K

 *******************************************************************************
 *   ___                                                                       *
 *  /   \                                                                      *
 * [ABORT]                                                                     *
 *  \___/     SCF run NOT converged. To continue the calculation regardless,   *
 *    |             please set the keyword IGNORE_CONVERGENCE_FAILURE.         *
 *  O/|                                                                        *
 * /| |                                                                        *
 * / \                                                            qs_scf.F:611 *
 *******************************************************************************


 ===== Routine Calling Stack ===== 

            3 scf_env_do_scf
            2 qs_energies
            1 CP2K

 *******************************************************************************
 *   ___                                                                       *
 *  /   \                                                                      *
 * [ABORT]                                                                     *
 *  \___/     SCF run NOT converged. To continue the calculation regardless,   *
 *    |             please set the keyword IGNORE_CONVERGENCE_FAILURE.         *
 *  O/|                                                                        *
 * /| |                                                                        *
 * / \                                                            qs_scf.F:611 *
 *******************************************************************************


 ===== Routine Calling Stack ===== 

            3 scf_env_do_scf
            2 qs_energies
            1 CP2K

 *******************************************************************************
 *   ___                                                                       *
 *  /   \                                                                      *
 * [ABORT]                                                                     *
 *  \___/     SCF run NOT converged. To continue the calculation regardless,   *
 *    |             please set the keyword IGNORE_CONVERGENCE_FAILURE.         *
 *  O/|                                                                        *
 * /| |                                                                        *
 * / \                                                            qs_scf.F:611 *
 *******************************************************************************


 ===== Routine Calling Stack ===== 

            3 scf_env_do_scf
            2 qs_energies
            1 CP2K

 *******************************************************************************
 *   ___                                                                       *
 *  /   \                                                                      *
 * [ABORT]                                                                     *
 *  \___/     SCF run NOT converged. To continue the calculation regardless,   *
 *    |             please set the keyword IGNORE_CONVERGENCE_FAILURE.         *
 *  O/|                                                                        *
 * /| |                                                                        *
 * / \                                                            qs_scf.F:611 *
 *******************************************************************************


 ===== Routine Calling Stack ===== 

            3 scf_env_do_scf
            2 qs_energies
            1 CP2K

 *******************************************************************************
 *   ___                                                                       *
 *  /   \                                                                      *
 * [ABORT]                                                                     *
 *  \___/     SCF run NOT converged. To continue the calculation regardless,   *
 *    |             please set the keyword IGNORE_CONVERGENCE_FAILURE.         *
 *  O/|                                                                        *
 * /| |                                                                        *
 * / \                                                            qs_scf.F:611 *
 *******************************************************************************


 ===== Routine Calling Stack ===== 

            3 scf_env_do_scf
            2 qs_energies
            1 CP2K

 *******************************************************************************
 *   ___                                                                       *
 *  /   \                                                                      *
 * [ABORT]                                                                     *
 *  \___/     SCF run NOT converged. To continue the calculation regardless,   *
 *    |             please set the keyword IGNORE_CONVERGENCE_FAILURE.         *
 *  O/|                                                                        *
 * /| |                                                                        *
 * / \                                                            qs_scf.F:611 *
 *******************************************************************************


 ===== Routine Calling Stack ===== 

            3 scf_env_do_scf
            2 qs_energies
            1 CP2K

 *******************************************************************************
 *   ___                                                                       *
 *  /   \                                                                      *
 * [ABORT]                                                                     *
 *  \___/     SCF run NOT converged. To continue the calculation regardless,   *
 *    |             please set the keyword IGNORE_CONVERGENCE_FAILURE.         *
 *  O/|                                                                        *
 * /| |                                                                        *
 * / \                                                            qs_scf.F:611 *
 *******************************************************************************


 ===== Routine Calling Stack ===== 

            3 scf_env_do_scf
            2 qs_energies
            1 CP2K

 *******************************************************************************
 *   ___                                                                       *
 *  /   \                                                                      *
 * [ABORT]                                                                     *
 *  \___/     SCF run NOT converged. To continue the calculation regardless,   *
 *    |             please set the keyword IGNORE_CONVERGENCE_FAILURE.         *
 *  O/|                                                                        *
 * /| |                                                                        *
 * / \                                                            qs_scf.F:611 *
 *******************************************************************************


 ===== Routine Calling Stack ===== 

            3 scf_env_do_scf
            2 qs_energies
            1 CP2K
