 DBCSR| CPU Multiplication driver                                           BLAS (U)
 DBCSR| Multrec recursion limit                                              512 (U)
 DBCSR| Multiplication stack size                                           1000 (D)
 DBCSR| Maximum elements for images                                    UNLIMITED (U)
 DBCSR| Multiplicative factor virtual images                                   1 (U)
 DBCSR| Use multiplication densification                                       T (D)
 DBCSR| Multiplication size stacks                                             3 (U)
 DBCSR| Use memory pool for CPU allocation                                     F (U)
 DBCSR| Number of 3D layers                                               SINGLE (U)
 DBCSR| Use MPI memory allocation                                              F (U)
 DBCSR| Use RMA algorithm                                                      F (U)
 DBCSR| Use Communication thread                                               T (U)
 DBCSR| Communication thread load                                             75 (D)
 DBCSR| MPI: My process id                                                     0
 DBCSR| MPI: Number of processes                                              48
 DBCSR| OMP: Current number of threads                                         4
 DBCSR| OMP: Max number of threads                                             4
 DBCSR| Split modifier for TAS multiplication algorithm                  1.0E+00 (U)


  **** **** ******  **  PROGRAM STARTED AT               2025-03-18 23:36:38.336
 ***** ** ***  *** **   PROGRAM STARTED ON                          i02r03c03s10
 **    ****   ******    PROGRAM STARTED BY                               di38fab
 ***** **    ** ** **   PROGRAM PROCESS ID                               2069745
  **** **  *******  **  PROGRAM STARTED IN /hppfs/scratch/04/di38fab/05_MOL/W4-1
                                           1+ALK/li_h/aug-cc-pVQZ/GW+BSE

 CP2K| version string:                 CP2K version 2025.1 (Development Version)
 CP2K| source code revision number:                                  git:d2e611a
 CP2K| cp2kflags: omp libint fftw3 libxc parallel scalapack max_contr=4         
 CP2K| is freely available from                            https://www.cp2k.org/
 CP2K| Program compiled at                       Thu 06 Mar 2025 05:09:20 PM CET
 CP2K| Program compiled on                                               login02
 CP2K| Program compiled for                                        Supermuc-foss
 CP2K| Data directory path                  /hppfs/work/pn36zo/di38fab/cp2k/data
 CP2K| Input file name                                                    GW.inp

 GLOBAL| Force Environment number                                              1
 GLOBAL| Basis set file name            /hppfs/scratch/04/di38fab/04_TMD/BASIS_A
 GLOBAL| Potential file name            /hppfs/work/pn36zo/di38fab/cp2k/data/ALL
 GLOBAL| MM Potential file name                                     MM_POTENTIAL
 GLOBAL| Coordinate file name                                      __STD_INPUT__
 GLOBAL| Method name                                                        CP2K
 GLOBAL| Project name                                                       MoS2
 GLOBAL| Run type                                                         ENERGY
 GLOBAL| FFT library                                                       FFTW3
 GLOBAL| Diagonalization library                                       ScaLAPACK
 GLOBAL| DGEMM library                                                      BLAS
 GLOBAL| Orthonormality check for eigenvectors                          DISABLED
 GLOBAL| Matrix multiplication library                                 ScaLAPACK
 GLOBAL| All-to-all communication in single precision                          F
 GLOBAL| FFTs using library dependent lengths                                  F
 GLOBAL| Grid backend                                                       AUTO
 GLOBAL| Global print level                                               MEDIUM
 GLOBAL| MPI I/O enabled                                                       T
 GLOBAL| Total number of message passing processes                            48
 GLOBAL| Number of threads for this process                                    4
 GLOBAL| This output is from process                                           0
 GLOBAL| OpenMP stack size per thread (OMP_STACKSIZE)                    default
 GLOBAL| CPU model name             Intel(R) Xeon(R) Platinum 8174 CPU @ 3.10GHz

 MEMORY| system memory details [Kb]
 MEMORY|                        rank 0           min           max       average
 MEMORY| MemTotal             98436664      98436660      98436708      98436674
 MEMORY| MemFree              83999956      83536828      83999956      83808016
 MEMORY| Buffers                     0             0             0             0
 MEMORY| Cached                2423112       2423112       2447528       2439565
 MEMORY| Slab                  1212508       1212508       1219096       1216492
 MEMORY| SReclaimable           258476        258476        272116        266514
 MEMORY| MemLikelyFree        86681544      86253096      86681544      86514095


 *** Fundamental physical constants (SI units) ***

 *** Literature: B. J. Mohr and B. N. Taylor,
 ***             CODATA recommended values of the fundamental physical
 ***             constants: 2006, Web Version 5.1
 ***             http://physics.nist.gov/constants

 Speed of light in vacuum [m/s]                             2.99792458000000E+08
 Magnetic constant or permeability of vacuum [N/A**2]       1.25663706143592E-06
 Electric constant or permittivity of vacuum [F/m]          8.85418781762039E-12
 Planck constant (h) [J*s]                                  6.62606896000000E-34
 Planck constant (h-bar) [J*s]                              1.05457162825177E-34
 Elementary charge [C]                                      1.60217648700000E-19
 Electron mass [kg]                                         9.10938215000000E-31
 Electron g factor [ ]                                     -2.00231930436220E+00
 Proton mass [kg]                                           1.67262163700000E-27
 Fine-structure constant                                    7.29735253760000E-03
 Rydberg constant [1/m]                                     1.09737315685270E+07
 Avogadro constant [1/mol]                                  6.02214179000000E+23
 Boltzmann constant [J/K]                                   1.38065040000000E-23
 Atomic mass unit [kg]                                      1.66053878200000E-27
 Bohr radius [m]                                            5.29177208590000E-11

 *** Conversion factors ***

 [u] -> [a.u.]                                              1.82288848426455E+03
 [Angstrom] -> [Bohr] = [a.u.]                              1.88972613288564E+00
 [a.u.] = [Bohr] -> [Angstrom]                              5.29177208590000E-01
 [a.u.] -> [s]                                              2.41888432650478E-17
 [a.u.] -> [fs]                                             2.41888432650478E-02
 [a.u.] -> [J]                                              4.35974393937059E-18
 [a.u.] -> [N]                                              8.23872205491840E-08
 [a.u.] -> [K]                                              3.15774647902944E+05
 [a.u.] -> [kJ/mol]                                         2.62549961709828E+03
 [a.u.] -> [kcal/mol]                                       6.27509468713739E+02
 [a.u.] -> [Pa]                                             2.94210107994716E+13
 [a.u.] -> [bar]                                            2.94210107994716E+08
 [a.u.] -> [atm]                                            2.90362800883016E+08
 [a.u.] -> [eV]                                             2.72113838565563E+01
 [a.u.] -> [Hz]                                             6.57968392072181E+15
 [a.u.] -> [1/cm] (wave numbers)                            2.19474631370540E+05
 [a.u./Bohr**2] -> [1/cm]                                   5.14048714338585E+03
 

 CELL_TOP| Volume [angstrom^3]:                                     27000.000000
 CELL_TOP| Vector a [angstrom    30.000     0.000     0.000   |a| =    30.000000
 CELL_TOP| Vector b [angstrom     0.000    30.000     0.000   |b| =    30.000000
 CELL_TOP| Vector c [angstrom     0.000     0.000    30.000   |c| =    30.000000
 CELL_TOP| Angle (b,c), alpha [degree]:                                90.000000
 CELL_TOP| Angle (a,c), beta  [degree]:                                90.000000
 CELL_TOP| Angle (a,b), gamma [degree]:                                90.000000
 CELL_TOP| Numerically orthorhombic:                                         YES
 CELL_TOP| Periodicity                                                      NONE

 GENERATE|  Preliminary Number of Bonds generated:                             0
 GENERATE|  Achieved consistency in connectivity generation.

 CELL| Volume [angstrom^3]:                                         27000.000000
 CELL| Vector a [angstrom]:      30.000     0.000     0.000   |a| =    30.000000
 CELL| Vector b [angstrom]:       0.000    30.000     0.000   |b| =    30.000000
 CELL| Vector c [angstrom]:       0.000     0.000    30.000   |c| =    30.000000
 CELL| Angle (b,c), alpha [degree]:                                    90.000000
 CELL| Angle (a,c), beta  [degree]:                                    90.000000
 CELL| Angle (a,b), gamma [degree]:                                    90.000000
 CELL| Numerically orthorhombic:                                             YES
 CELL| Periodicity                                                          NONE

 CELL_REF| Volume [angstrom^3]:                                     27000.000000
 CELL_REF| Vector a [angstrom    30.000     0.000     0.000   |a| =    30.000000
 CELL_REF| Vector b [angstrom     0.000    30.000     0.000   |b| =    30.000000
 CELL_REF| Vector c [angstrom     0.000     0.000    30.000   |c| =    30.000000
 CELL_REF| Angle (b,c), alpha [degree]:                                90.000000
 CELL_REF| Angle (a,c), beta  [degree]:                                90.000000
 CELL_REF| Angle (a,b), gamma [degree]:                                90.000000
 CELL_REF| Numerically orthorhombic:                                         YES
 CELL_REF| Periodicity                                                      NONE

 *******************************************************************************
 *******************************************************************************
 **                                                                           **
 **     #####                         ##              ##                      **
 **    ##   ##            ##          ##              ##                      **
 **   ##     ##                       ##            ######                    **
 **   ##     ##  ##   ##  ##   #####  ##  ##   ####   ##    #####    #####    **
 **   ##     ##  ##   ##  ##  ##      ## ##   ##      ##   ##   ##  ##   ##   **
 **   ##  ## ##  ##   ##  ##  ##      ####     ###    ##   ######   ######    **
 **    ##  ###   ##   ##  ##  ##      ## ##      ##   ##   ##       ##        **
 **     #######   #####   ##   #####  ##  ##  ####    ##    #####   ##        **
 **           ##                                                    ##        **
 **                                                                           **
 **                                                ... make the atoms dance   **
 **                                                                           **
 **            Copyright (C) by CP2K developers group (2000-2025)             **
 **                      J. Chem. Phys. 152, 194103 (2020)                    **
 **                                                                           **
 *******************************************************************************

 DFT| Spin restricted Kohn-Sham (RKS) calculation                            RKS
 DFT| Multiplicity                                                             1
 DFT| Number of spin states                                                    1
 DFT| Charge                                                                   0
 DFT| Self-interaction correction (SIC)                                       NO
 DFT| Cutoffs: density                                              1.000000E-10
 DFT|          gradient                                             1.000000E-10
 DFT|          tau                                                  1.000000E-10
 DFT|          cutoff_smoothing_range                               0.000000E+00
 DFT| XC density smoothing                                                  NONE
 DFT| XC derivatives                                                          PW

 FUNCTIONAL| PBE:
 FUNCTIONAL| J.P.Perdew, K.Burke, M.Ernzerhof, Phys. Rev. Letter, vol. 77, n 18,
 FUNCTIONAL|  pp. 3865-3868, (1996)sx=0.750sc=1.000{spin unpolarized}           


 QS| Method:                                                                GAPW
 QS| Density plane wave grid type                        NON-SPHERICAL FULLSPACE
 QS| Number of grid levels:                                                    4
 QS| Density cutoff [a.u.]:                                                250.0
 QS| Multi grid cutoff [a.u.]: 1) grid level                               250.0
 QS|                           2) grid level                                83.3
 QS|                           3) grid level                                27.8
 QS|                           4) grid level                                 9.3
 QS| Grid level progression factor:                                          3.0
 QS| Relative density cutoff [a.u.]:                                        50.0
 QS| Interaction thresholds: eps_pgf_orb:                                1.0E-12
 QS|                         eps_filter_matrix:                          0.0E+00
 QS|                         eps_core_charge:                            1.0E-14
 QS|                         eps_rho_gspace:                             1.0E-12
 QS|                         eps_rho_rspace:                             1.0E-12
 QS|                         eps_gvg_rspace:                             1.0E-06
 QS|                         eps_ppl:                                    1.0E-02
 QS|                         eps_ppnl:                                   1.0E-08
 QS| GAPW|      One center basis from orbital basis primitives
 QS| GAPW|                   eps_fit:                                    1.0E-04
 QS| GAPW|                   eps_iso:                                    1.0E-12
 QS| GAPW|                   eps_svd:                                    1.0E-08
 QS| GAPW|                   eps_cpc:                                    1.0E-12
 QS| GAPW|   atom-r-grid: quadrature:                                     GC_LOG
 QS| GAPW|      atom-s-grid:  max l :                                          8
 QS| GAPW|      max_l_rho0 :                                                   2


 ATOMIC KIND INFORMATION

  1. Atomic kind: li                                    Number of atoms:       1

     Orbital Basis Set                                               aug-cc-pVQZ

       Number of orbital shell sets:                                          10
       Number of orbital shells:                                              20
       Number of primitive Cartesian functions:                               29
       Number of Cartesian basis functions:                                  105
       Number of spherical basis functions:                                   80
       Norm type:                                                              2

       Normalised Cartesian orbitals:

                        Set   Shell   Orbital            Exponent    Coefficient

                          1       1    1s                0.006400       0.016127

                          2       1    1px               0.007500       0.003146
                          2       1    1py               0.007500       0.003146
                          2       1    1pz               0.007500       0.003146

                          3       1    1px               6.250000       0.000000
                                                         1.370000       0.000000
                                                         0.367200       0.000000
                                                         0.119200       0.099836
                                                         0.044740       0.000000
                                                         0.017950       0.000000
                          3       1    1py               6.250000       0.000000
                                                         1.370000       0.000000
                                                         0.367200       0.000000
                                                         0.119200       0.099836
                                                         0.044740       0.000000
                                                         0.017950       0.000000
                          3       1    1pz               6.250000       0.000000
                                                         1.370000       0.000000
                                                         0.367200       0.000000
                                                         0.119200       0.099836
                                                         0.044740       0.000000
                                                         0.017950       0.000000

                          3       2    2px               6.250000       0.047724
                                                         1.370000       0.040809
                                                         0.367200       0.032230
                                                         0.119200       0.027364
                                                         0.044740       0.015237
                                                         0.017950       0.002664
                          3       2    2py               6.250000       0.047724
                                                         1.370000       0.040809
                                                         0.367200       0.032230
                                                         0.119200       0.027364
                                                         0.044740       0.015237
                                                         0.017950       0.002664
                          3       2    2pz               6.250000       0.047724
                                                         1.370000       0.040809
                                                         0.367200       0.032230
                                                         0.119200       0.027364
                                                         0.044740       0.015237
                                                         0.017950       0.002664

                          3       3    3px               6.250000       0.000000
                                                         1.370000       0.000000
                                                         0.367200       0.000000
                                                         0.119200       0.000000
                                                         0.044740       0.029330
                                                         0.017950       0.000000
                          3       3    3py               6.250000       0.000000
                                                         1.370000       0.000000
                                                         0.367200       0.000000
                                                         0.119200       0.000000
                                                         0.044740       0.029330
                                                         0.017950       0.000000
                          3       3    3pz               6.250000       0.000000
                                                         1.370000       0.000000
                                                         0.367200       0.000000
                                                         0.119200       0.000000
                                                         0.044740       0.029330
                                                         0.017950       0.000000

                          3       4    4px               6.250000       0.000000
                                                         1.370000       0.000000
                                                         0.367200       0.000000
                                                         0.119200       0.000000
                                                         0.044740       0.000000
                                                         0.017950       0.009365
                          3       4    4py               6.250000       0.000000
                                                         1.370000       0.000000
                                                         0.367200       0.000000
                                                         0.119200       0.000000
                                                         0.044740       0.000000
                                                         0.017950       0.009365
                          3       4    4pz               6.250000       0.000000
                                                         1.370000       0.000000
                                                         0.367200       0.000000
                                                         0.119200       0.000000
                                                         0.044740       0.000000
                                                         0.017950       0.009365

                          4       1    1s             6601.000000       0.061066
                                                       989.700000       0.114566
                                                       225.700000       0.196217
                                                        64.290000       0.310635
                                                        21.180000       0.443628
                                                         7.724000       0.538931
                                                         3.003000       0.511857
                                                         1.212000       0.324312
                                                         0.493000       0.082572
                                                         0.095150       0.001221
                                                         0.047910      -0.000394
                                                         0.022200       0.000070

                          4       2    2s             6601.000000       0.000000
                                                       989.700000       0.000000
                                                       225.700000       0.000000
                                                        64.290000       0.000000
                                                        21.180000       0.000000
                                                         7.724000       0.000000
                                                         3.003000       0.000000
                                                         1.212000       0.000000
                                                         0.493000       0.000000
                                                         0.095150       0.122100
                                                         0.047910       0.000000
                                                         0.022200       0.000000

                          4       3    3s             6601.000000       0.000000
                                                       989.700000       0.000000
                                                       225.700000       0.000000
                                                        64.290000       0.000000
                                                        21.180000       0.000000
                                                         7.724000       0.000000
                                                         3.003000       0.000000
                                                         1.212000       0.000000
                                                         0.493000       0.000000
                                                         0.095150       0.000000
                                                         0.047910       0.072984
                                                         0.022200       0.000000

                          4       4    4s             6601.000000      -0.009395
                                                       989.700000      -0.017858
                                                       225.700000      -0.030752
                                                        64.290000      -0.048868
                                                        21.180000      -0.071230
                                                         7.724000      -0.089467
                                                         3.003000      -0.093256
                                                         1.212000      -0.077300
                                                         0.493000      -0.050776
                                                         0.095150       0.033774
                                                         0.047910       0.040108
                                                         0.022200       0.011370

                          4       5    5s             6601.000000       0.000000
                                                       989.700000       0.000000
                                                       225.700000       0.000000
                                                        64.290000       0.000000
                                                        21.180000       0.000000
                                                         7.724000       0.000000
                                                         3.003000       0.000000
                                                         1.212000       0.000000
                                                         0.493000       0.000000
                                                         0.095150       0.000000
                                                         0.047910       0.000000
                                                         0.022200       0.040990

                          5       1    1dx2              0.027200       0.002999
                          5       1    1dxy              0.027200       0.005194
                          5       1    1dxz              0.027200       0.005194
                          5       1    1dy2              0.027200       0.002999
                          5       1    1dyz              0.027200       0.005194
                          5       1    1dz2              0.027200       0.002999

                          6       1    1fx3              0.050400       0.001772
                          6       1    1fx2y             0.050400       0.003962
                          6       1    1fx2z             0.050400       0.003962
                          6       1    1fxy2             0.050400       0.003962
                          6       1    1fxyz             0.050400       0.006862
                          6       1    1fxz2             0.050400       0.003962
                          6       1    1fy3              0.050400       0.001772
                          6       1    1fy2z             0.050400       0.003962
                          6       1    1fyz2             0.050400       0.003962
                          6       1    1fz3              0.050400       0.001772

                          7       1    1dx2              0.335200       0.243048
                                                         0.148200       0.000000
                                                         0.065600       0.000000
                          7       1    1dxy              0.335200       0.420971
                                                         0.148200       0.000000
                                                         0.065600       0.000000
                          7       1    1dxz              0.335200       0.420971
                                                         0.148200       0.000000
                                                         0.065600       0.000000
                          7       1    1dy2              0.335200       0.243048
                                                         0.148200       0.000000
                                                         0.065600       0.000000
                          7       1    1dyz              0.335200       0.420971
                                                         0.148200       0.000000
                                                         0.065600       0.000000
                          7       1    1dz2              0.335200       0.243048
                                                         0.148200       0.000000
                                                         0.065600       0.000000

                          7       2    2dx2              0.335200       0.000000
                                                         0.148200       0.058263
                                                         0.065600       0.000000
                          7       2    2dxy              0.335200       0.000000
                                                         0.148200       0.100915
                                                         0.065600       0.000000
                          7       2    2dxz              0.335200       0.000000
                                                         0.148200       0.100915
                                                         0.065600       0.000000
                          7       2    2dy2              0.335200       0.000000
                                                         0.148200       0.058263
                                                         0.065600       0.000000
                          7       2    2dyz              0.335200       0.000000
                                                         0.148200       0.100915
                                                         0.065600       0.000000
                          7       2    2dz2              0.335200       0.000000
                                                         0.148200       0.058263
                                                         0.065600       0.000000

                          7       3    3dx2              0.335200       0.000000
                                                         0.148200       0.000000
                                                         0.065600       0.013996
                          7       3    3dxy              0.335200       0.000000
                                                         0.148200       0.000000
                                                         0.065600       0.024241
                          7       3    3dxz              0.335200       0.000000
                                                         0.148200       0.000000
                                                         0.065600       0.024241
                          7       3    3dy2              0.335200       0.000000
                                                         0.148200       0.000000
                                                         0.065600       0.013996
                          7       3    3dyz              0.335200       0.000000
                                                         0.148200       0.000000
                                                         0.065600       0.024241
                          7       3    3dz2              0.335200       0.000000
                                                         0.148200       0.000000
                                                         0.065600       0.013996

                          8       1    1gx4              0.104100       0.002210
                          8       1    1gx3y             0.104100       0.005848
                          8       1    1gx3z             0.104100       0.005848
                          8       1    1gx2y2            0.104100       0.007549
                          8       1    1gx2yz            0.104100       0.013076
                          8       1    1gx2z2            0.104100       0.007549
                          8       1    1gxy3             0.104100       0.005848
                          8       1    1gxy2z            0.104100       0.013076
                          8       1    1gxyz2            0.104100       0.013076
                          8       1    1gxz3             0.104100       0.005848
                          8       1    1gy4              0.104100       0.002210
                          8       1    1gy3z             0.104100       0.005848
                          8       1    1gy2z2            0.104100       0.007549
                          8       1    1gyz3             0.104100       0.005848
                          8       1    1gz4              0.104100       0.002210

                          9       1    1fx3              0.228000       0.052882
                                                         0.113500       0.000000
                          9       1    1fx2y             0.228000       0.118248
                                                         0.113500       0.000000
                          9       1    1fx2z             0.228000       0.118248
                                                         0.113500       0.000000
                          9       1    1fxy2             0.228000       0.118248
                                                         0.113500       0.000000
                          9       1    1fxyz             0.228000       0.204811
                                                         0.113500       0.000000
                          9       1    1fxz2             0.228000       0.118248
                                                         0.113500       0.000000
                          9       1    1fy3              0.228000       0.052882
                                                         0.113500       0.000000
                          9       1    1fy2z             0.228000       0.118248
                                                         0.113500       0.000000
                          9       1    1fyz2             0.228000       0.118248
                                                         0.113500       0.000000
                          9       1    1fz3              0.228000       0.052882
                                                         0.113500       0.000000

                          9       2    2fx3              0.228000       0.000000
                                                         0.113500       0.011008
                          9       2    2fx2y             0.228000       0.000000
                                                         0.113500       0.024614
                          9       2    2fx2z             0.228000       0.000000
                                                         0.113500       0.024614
                          9       2    2fxy2             0.228000       0.000000
                                                         0.113500       0.024614
                          9       2    2fxyz             0.228000       0.000000
                                                         0.113500       0.042632
                          9       2    2fxz2             0.228000       0.000000
                                                         0.113500       0.024614
                          9       2    2fy3              0.228000       0.000000
                                                         0.113500       0.011008
                          9       2    2fy2z             0.228000       0.000000
                                                         0.113500       0.024614
                          9       2    2fyz2             0.228000       0.000000
                                                         0.113500       0.024614
                          9       2    2fz3              0.228000       0.000000
                                                         0.113500       0.011008

                         10       1    1gx4              0.231900       0.019999
                         10       1    1gx3y             0.231900       0.052913
                         10       1    1gx3z             0.231900       0.052913
                         10       1    1gx2y2            0.231900       0.068310
                         10       1    1gx2yz            0.231900       0.118317
                         10       1    1gx2z2            0.231900       0.068310
                         10       1    1gxy3             0.231900       0.052913
                         10       1    1gxy2z            0.231900       0.118317
                         10       1    1gxyz2            0.231900       0.118317
                         10       1    1gxz3             0.231900       0.052913
                         10       1    1gy4              0.231900       0.019999
                         10       1    1gy3z             0.231900       0.052913
                         10       1    1gy2z2            0.231900       0.068310
                         10       1    1gyz3             0.231900       0.052913
                         10       1    1gz4              0.231900       0.019999

     RI Auxiliary Basis Set                                    aug-cc-pV5Z-RIFIT

       Number of orbital shell sets:                                          46
       Number of orbital shells:                                              46
       Number of primitive Cartesian functions:                               46
       Number of Cartesian basis functions:                                  371
       Number of spherical basis functions:                                  242
       Norm type:                                                              2

       Normalised Cartesian orbitals:

                        Set   Shell   Orbital            Exponent    Coefficient

                          1       1    1s                0.030479       0.051989

                          2       1    1px               0.045175       0.029687
                          2       1    1py               0.045175       0.029687
                          2       1    1pz               0.045175       0.029687

                          3       1    1dx2              0.048718       0.008315
                          3       1    1dxy              0.048718       0.014402
                          3       1    1dxz              0.048718       0.014402
                          3       1    1dy2              0.048718       0.008315
                          3       1    1dyz              0.048718       0.014402
                          3       1    1dz2              0.048718       0.008315

                          4       1    1s                0.064288       0.090993

                          5       1    1fx3              0.065213       0.003164
                          5       1    1fx2y             0.065213       0.007075
                          5       1    1fx2z             0.065213       0.007075
                          5       1    1fxy2             0.065213       0.007075
                          5       1    1fxyz             0.065213       0.012253
                          5       1    1fxz2             0.065213       0.007075
                          5       1    1fy3              0.065213       0.003164
                          5       1    1fy2z             0.065213       0.007075
                          5       1    1fyz2             0.065213       0.007075
                          5       1    1fz3              0.065213       0.003164

                          6       1    1px               0.072777       0.053881
                          6       1    1py               0.072777       0.053881
                          6       1    1pz               0.072777       0.053881

                          7       1    1gx4              0.099854       0.001971
                          7       1    1gx3y             0.099854       0.005215
                          7       1    1gx3z             0.099854       0.005215
                          7       1    1gx2y2            0.099854       0.006732
                          7       1    1gx2yz            0.099854       0.011661
                          7       1    1gx2z2            0.099854       0.006732
                          7       1    1gxy3             0.099854       0.005215
                          7       1    1gxy2z            0.099854       0.011661
                          7       1    1gxyz2            0.099854       0.011661
                          7       1    1gxz3             0.099854       0.005215
                          7       1    1gy4              0.099854       0.001971
                          7       1    1gy3z             0.099854       0.005215
                          7       1    1gy2z2            0.099854       0.006732
                          7       1    1gyz3             0.099854       0.005215
                          7       1    1gz4              0.099854       0.001971

                          8       1    1dx2              0.101078       0.029823
                          8       1    1dxy              0.101078       0.051656
                          8       1    1dxz              0.101078       0.051656
                          8       1    1dy2              0.101078       0.029823
                          8       1    1dyz              0.101078       0.051656
                          8       1    1dz2              0.101078       0.029823

                          9       1    1px               0.121261       0.101998
                          9       1    1py               0.121261       0.101998
                          9       1    1pz               0.121261       0.101998

                         10       1    1s                0.123532       0.148506

                         11       1    1fx3              0.156013       0.022520
                         11       1    1fx2y             0.156013       0.050356
                         11       1    1fx2z             0.156013       0.050356
                         11       1    1fxy2             0.156013       0.050356
                         11       1    1fxyz             0.156013       0.087219
                         11       1    1fxz2             0.156013       0.050356
                         11       1    1fy3              0.156013       0.022520
                         11       1    1fy2z             0.156013       0.050356
                         11       1    1fyz2             0.156013       0.050356
                         11       1    1fz3              0.156013       0.022520

                         12       1    1hx5              0.161413       0.001978
                         12       1    1hx4y             0.161413       0.005933
                         12       1    1hx4z             0.161413       0.005933
                         12       1    1hx3y2            0.161413       0.009063
                         12       1    1hx3yz            0.161413       0.015697
                         12       1    1hx3z2            0.161413       0.009063
                         12       1    1hx2y3            0.161413       0.009063
                         12       1    1hx2y2z           0.161413       0.020265
                         12       1    1hx2yz2           0.161413       0.020265
                         12       1    1hx2z3            0.161413       0.009063
                         12       1    1hxy4             0.161413       0.005933
                         12       1    1hxy3z            0.161413       0.015697
                         12       1    1hxy2z2           0.161413       0.020265
                         12       1    1hxyz3            0.161413       0.015697
                         12       1    1hxz4             0.161413       0.005933
                         12       1    1hy5              0.161413       0.001978
                         12       1    1hy4z             0.161413       0.005933
                         12       1    1hy3z2            0.161413       0.009063
                         12       1    1hy2z3            0.161413       0.009063
                         12       1    1hyz4             0.161413       0.005933
                         12       1    1hz5              0.161413       0.001978

                         13       1    1dx2              0.173452       0.076731
                         13       1    1dxy              0.173452       0.132903
                         13       1    1dxz              0.173452       0.132903
                         13       1    1dy2              0.173452       0.076731
                         13       1    1dyz              0.173452       0.132903
                         13       1    1dz2              0.173452       0.076731

                         14       1    1gx4              0.196188       0.012627
                         14       1    1gx3y             0.196188       0.033407
                         14       1    1gx3z             0.196188       0.033407
                         14       1    1gx2y2            0.196188       0.043128
                         14       1    1gx2yz            0.196188       0.074700
                         14       1    1gx2z2            0.196188       0.043128
                         14       1    1gxy3             0.196188       0.033407
                         14       1    1gxy2z            0.196188       0.074700
                         14       1    1gxyz2            0.196188       0.074700
                         14       1    1gxz3             0.196188       0.033407
                         14       1    1gy4              0.196188       0.012627
                         14       1    1gy3z             0.196188       0.033407
                         14       1    1gy2z2            0.196188       0.043128
                         14       1    1gyz3             0.196188       0.033407
                         14       1    1gz4              0.196188       0.012627

                         15       1    1px               0.223276       0.218772
                         15       1    1py               0.223276       0.218772
                         15       1    1pz               0.223276       0.218772

                         16       1    1s                0.246901       0.249633

                         17       1    1fx3              0.259280       0.070621
                         17       1    1fx2y             0.259280       0.157914
                         17       1    1fx2z             0.259280       0.157914
                         17       1    1fxy2             0.259280       0.157914
                         17       1    1fxyz             0.259280       0.273515
                         17       1    1fxz2             0.259280       0.157914
                         17       1    1fy3              0.259280       0.070621
                         17       1    1fy2z             0.259280       0.157914
                         17       1    1fyz2             0.259280       0.157914
                         17       1    1fz3              0.259280       0.070621

                         18       1    1ix6              0.339630       0.007797
                         18       1    1ix5y             0.339630       0.025861
                         18       1    1ix5z             0.339630       0.025861
                         18       1    1ix4y2            0.339630       0.044793
                         18       1    1ix4yz            0.339630       0.077583
                         18       1    1ix4z2            0.339630       0.044793
                         18       1    1ix3y3            0.339630       0.052999
                         18       1    1ix3y2z           0.339630       0.118510
                         18       1    1ix3yz2           0.339630       0.118510
                         18       1    1ix3z3            0.339630       0.052999
                         18       1    1ix2y4            0.339630       0.044793
                         18       1    1ix2y3z           0.339630       0.118510
                         18       1    1ix2y2z2          0.339630       0.152996
                         18       1    1ix2yz3           0.339630       0.118510
                         18       1    1ix2z4            0.339630       0.044793
                         18       1    1ixy5             0.339630       0.025861
                         18       1    1ixy4z            0.339630       0.077583
                         18       1    1ixy3z2           0.339630       0.118510
                         18       1    1ixy2z3           0.339630       0.118510
                         18       1    1ixyz4            0.339630       0.077583
                         18       1    1ixz5             0.339630       0.025861
                         18       1    1iy6              0.339630       0.007797
                         18       1    1iy5z             0.339630       0.025861
                         18       1    1iy4z2            0.339630       0.044793
                         18       1    1iy3z3            0.339630       0.052999
                         18       1    1iy2z4            0.339630       0.044793
                         18       1    1iyz5             0.339630       0.025861
                         18       1    1iz6              0.339630       0.007797

                         19       1    1dx2              0.339644       0.248715
                         19       1    1dxy              0.339644       0.430786
                         19       1    1dxz              0.339644       0.430786
                         19       1    1dy2              0.339644       0.248715
                         19       1    1dyz              0.339644       0.430786
                         19       1    1dz2              0.339644       0.248715

                         20       1    1s                0.380123       0.345027

                         21       1    1fx3              0.415519       0.204072
                         21       1    1fx2y             0.415519       0.456319
                         21       1    1fx2z             0.415519       0.456319
                         21       1    1fxy2             0.415519       0.456319
                         21       1    1fxyz             0.415519       0.790368
                         21       1    1fxz2             0.415519       0.456319
                         21       1    1fy3              0.415519       0.204072
                         21       1    1fy2z             0.415519       0.456319
                         21       1    1fyz2             0.415519       0.456319
                         21       1    1fz3              0.415519       0.204072

                         22       1    1hx5              0.427119       0.046733
                         22       1    1hx4y             0.427119       0.140200
                         22       1    1hx4z             0.427119       0.140200
                         22       1    1hx3y2            0.427119       0.214160
                         22       1    1hx3yz            0.427119       0.370935
                         22       1    1hx3z2            0.427119       0.214160
                         22       1    1hx2y3            0.427119       0.214160
                         22       1    1hx2y2z           0.427119       0.478876
                         22       1    1hx2yz2           0.427119       0.478876
                         22       1    1hx2z3            0.427119       0.214160
                         22       1    1hxy4             0.427119       0.140200
                         22       1    1hxy3z            0.427119       0.370935
                         22       1    1hxy2z2           0.427119       0.478876
                         22       1    1hxyz3            0.427119       0.370935
                         22       1    1hxz4             0.427119       0.140200
                         22       1    1hy5              0.427119       0.046733
                         22       1    1hy4z             0.427119       0.140200
                         22       1    1hy3z2            0.427119       0.214160
                         22       1    1hy2z3            0.427119       0.214160
                         22       1    1hyz4             0.427119       0.140200
                         22       1    1hz5              0.427119       0.046733

                         23       1    1gx4              0.434910       0.112729
                         23       1    1gx3y             0.434910       0.298252
                         23       1    1gx3z             0.434910       0.298252
                         23       1    1gx2y2            0.434910       0.385041
                         23       1    1gx2yz            0.434910       0.666911
                         23       1    1gx2z2            0.434910       0.385041
                         23       1    1gxy3             0.434910       0.298252
                         23       1    1gxy2z            0.434910       0.666911
                         23       1    1gxyz2            0.434910       0.666911
                         23       1    1gxz3             0.434910       0.298252
                         23       1    1gy4              0.434910       0.112729
                         23       1    1gy3z             0.434910       0.298252
                         23       1    1gy2z2            0.434910       0.385041
                         23       1    1gyz3             0.434910       0.298252
                         23       1    1gz4              0.434910       0.112729

                         24       1    1px               0.520190       0.629713
                         24       1    1py               0.520190       0.629713
                         24       1    1pz               0.520190       0.629713

                         25       1    1hx5              0.598672       0.140026
                         25       1    1hx4y             0.598672       0.420078
                         25       1    1hx4z             0.598672       0.420078
                         25       1    1hx3y2            0.598672       0.641679
                         25       1    1hx3yz            0.598672       1.111421
                         25       1    1hx3z2            0.598672       0.641679
                         25       1    1hx2y3            0.598672       0.641679
                         25       1    1hx2y2z           0.598672       1.434838
                         25       1    1hx2yz2           0.598672       1.434838
                         25       1    1hx2z3            0.598672       0.641679
                         25       1    1hxy4             0.598672       0.420078
                         25       1    1hxy3z            0.598672       1.111421
                         25       1    1hxy2z2           0.598672       1.434838
                         25       1    1hxyz3            0.598672       1.111421
                         25       1    1hxz4             0.598672       0.420078
                         25       1    1hy5              0.598672       0.140026
                         25       1    1hy4z             0.598672       0.420078
                         25       1    1hy3z2            0.598672       0.641679
                         25       1    1hy2z3            0.598672       0.641679
                         25       1    1hyz4             0.598672       0.420078
                         25       1    1hz5              0.598672       0.140026

                         26       1    1ix6              0.598672       0.065334
                         26       1    1ix5y             0.598672       0.216687
                         26       1    1ix5z             0.598672       0.216687
                         26       1    1ix4y2            0.598672       0.375313
                         26       1    1ix4yz            0.598672       0.650061
                         26       1    1ix4z2            0.598672       0.375313
                         26       1    1ix3y3            0.598672       0.444076
                         26       1    1ix3y2z           0.598672       0.992984
                         26       1    1ix3yz2           0.598672       0.992984
                         26       1    1ix3z3            0.598672       0.444076
                         26       1    1ix2y4            0.598672       0.375313
                         26       1    1ix2y3z           0.598672       0.992984
                         26       1    1ix2y2z2          0.598672       1.281937
                         26       1    1ix2yz3           0.598672       0.992984
                         26       1    1ix2z4            0.598672       0.375313
                         26       1    1ixy5             0.598672       0.216687
                         26       1    1ixy4z            0.598672       0.650061
                         26       1    1ixy3z2           0.598672       0.992984
                         26       1    1ixy2z3           0.598672       0.992984
                         26       1    1ixyz4            0.598672       0.650061
                         26       1    1ixz5             0.598672       0.216687
                         26       1    1iy6              0.598672       0.065334
                         26       1    1iy5z             0.598672       0.216687
                         26       1    1iy4z2            0.598672       0.375313
                         26       1    1iy3z3            0.598672       0.444076
                         26       1    1iy2z4            0.598672       0.375313
                         26       1    1iyz5             0.598672       0.216687
                         26       1    1iz6              0.598672       0.065334

                         27       1    1s                0.705917       0.548877

                         28       1    1fx3              0.764640       0.804883
                         28       1    1fx2y             0.764640       1.799773
                         28       1    1fx2z             0.764640       1.799773
                         28       1    1fxy2             0.764640       1.799773
                         28       1    1fxyz             0.764640       3.117298
                         28       1    1fxz2             0.764640       1.799773
                         28       1    1fy3              0.764640       0.804883
                         28       1    1fy2z             0.764640       1.799773
                         28       1    1fyz2             0.764640       1.799773
                         28       1    1fz3              0.764640       0.804883

                         29       1    1dx2              0.771893       1.046247
                         29       1    1dxy              0.771893       1.812154
                         29       1    1dxz              0.771893       1.812154
                         29       1    1dy2              0.771893       1.046247
                         29       1    1dyz              0.771893       1.812154
                         29       1    1dz2              0.771893       1.046247

                         30       1    1gx4              0.856517       0.726874
                         30       1    1gx3y             0.856517       1.923129
                         30       1    1gx3z             0.856517       1.923129
                         30       1    1gx2y2            0.856517       2.482749
                         30       1    1gx2yz            0.856517       4.300247
                         30       1    1gx2z2            0.856517       2.482749
                         30       1    1gxy3             0.856517       1.923129
                         30       1    1gxy2z            0.856517       4.300247
                         30       1    1gxyz2            0.856517       4.300247
                         30       1    1gxz3             0.856517       1.923129
                         30       1    1gy4              0.856517       0.726874
                         30       1    1gy3z             0.856517       1.923129
                         30       1    1gy2z2            0.856517       2.482749
                         30       1    1gyz3             0.856517       1.923129
                         30       1    1gz4              0.856517       0.726874

                         31       1    1px               1.029950       1.478973
                         31       1    1py               1.029950       1.478973
                         31       1    1pz               1.029950       1.478973

                         32       1    1hx5              1.185280       1.289028
                         32       1    1hx4y             1.185280       3.867083
                         32       1    1hx4z             1.185280       3.867083
                         32       1    1hx3y2            1.185280       5.907067
                         32       1    1hx3yz            1.185280      10.231341
                         32       1    1hx3z2            1.185280       5.907067
                         32       1    1hx2y3            1.185280       5.907067
                         32       1    1hx2y2z           1.185280      13.208604
                         32       1    1hx2yz2           1.185280      13.208604
                         32       1    1hx2z3            1.185280       5.907067
                         32       1    1hxy4             1.185280       3.867083
                         32       1    1hxy3z            1.185280      10.231341
                         32       1    1hxy2z2           1.185280      13.208604
                         32       1    1hxyz3            1.185280      10.231341
                         32       1    1hxz4             1.185280       3.867083
                         32       1    1hy5              1.185280       1.289028
                         32       1    1hy4z             1.185280       3.867083
                         32       1    1hy3z2            1.185280       5.907067
                         32       1    1hy2z3            1.185280       5.907067
                         32       1    1hyz4             1.185280       3.867083
                         32       1    1hz5              1.185280       1.289028

                         33       1    1fx3              1.349290       2.888626
                         33       1    1fx2y             1.349290       6.459165
                         33       1    1fx2z             1.349290       6.459165
                         33       1    1fxy2             1.349290       6.459165
                         33       1    1fxyz             1.349290      11.187602
                         33       1    1fxz2             1.349290       6.459165
                         33       1    1fy3              1.349290       2.888626
                         33       1    1fy2z             1.349290       6.459165
                         33       1    1fyz2             1.349290       6.459165
                         33       1    1fz3              1.349290       2.888626

                         34       1    1dx2              1.351630       2.788757
                         34       1    1dxy              1.351630       4.830269
                         34       1    1dxz              1.351630       4.830269
                         34       1    1dy2              1.351630       2.788757
                         34       1    1dyz              1.351630       4.830269
                         34       1    1dz2              1.351630       2.788757

                         35       1    1s                1.423940       0.929028

                         36       1    1gx4              1.819640       5.772919
                         36       1    1gx3y             1.819640      15.273709
                         36       1    1gx3z             1.819640      15.273709
                         36       1    1gx2y2            1.819640      19.718273
                         36       1    1gx2yz            1.819640      34.153051
                         36       1    1gx2z2            1.819640      19.718273
                         36       1    1gxy3             1.819640      15.273709
                         36       1    1gxy2z            1.819640      34.153051
                         36       1    1gxyz2            1.819640      34.153051
                         36       1    1gxz3             1.819640      15.273709
                         36       1    1gy4              1.819640       5.772919
                         36       1    1gy3z             1.819640      15.273709
                         36       1    1gy2z2            1.819640      19.718273
                         36       1    1gyz3             1.819640      15.273709
                         36       1    1gz4              1.819640       5.772919

                         37       1    1px               2.347260       4.141347
                         37       1    1py               2.347260       4.141347
                         37       1    1pz               2.347260       4.141347

                         38       1    1dx2              2.681530       9.248666
                         38       1    1dxy              2.681530      16.019160
                         38       1    1dxz              2.681530      16.019160
                         38       1    1dy2              2.681530       9.248666
                         38       1    1dyz              2.681530      16.019160
                         38       1    1dz2              2.681530       9.248666

                         39       1    1s                2.891360       1.580290

                         40       1    1fx3              3.229490      20.582865
                         40       1    1fx2y             3.229490      46.024685
                         40       1    1fx2z             3.229490      46.024685
                         40       1    1fxy2             3.229490      46.024685
                         40       1    1fxyz             3.229490      79.717093
                         40       1    1fxz2             3.229490      46.024685
                         40       1    1fy3              3.229490      20.582865
                         40       1    1fy2z             3.229490      46.024685
                         40       1    1fyz2             3.229490      46.024685
                         40       1    1fz3              3.229490      20.582865

                         41       1    1px               6.081490      13.612960
                         41       1    1py               6.081490      13.612960
                         41       1    1pz               6.081490      13.612960

                         42       1    1dx2              6.963580      49.132227
                         42       1    1dxy              6.963580      85.099514
                         42       1    1dxz              6.963580      85.099514
                         42       1    1dy2              6.963580      49.132227
                         42       1    1dyz              6.963580      85.099514
                         42       1    1dz2              6.963580      49.132227

                         43       1    1s                7.795370       3.324969

                         44       1    1px              20.093900      60.641563
                         44       1    1py              20.093900      60.641563
                         44       1    1pz              20.093900      60.641563

                         45       1    1s               24.228600       7.783167

                         46       1    1s              115.553000      25.118634

       Atomic covalent radius [Angstrom]:                                  1.230

       Atomic van der Waals radius [Angstrom]:                             1.820

     The atoms of this atomic kind are PAW atoms (GAPW):
       Hard Gaussian function radius:                                      1.512
       Rho0 radius:                                                        1.512
       Maximum GTO radius used for PAW projector construction:            24.566

     GAPW Soft Basis Set                                        aug-cc-pVQZ_soft

       Number of orbital shell sets:                                          10
       Number of orbital shells:                                              20
       Number of primitive Cartesian functions:                               22
       Number of Cartesian basis functions:                                  105
       Number of spherical basis functions:                                   80
       Norm type:                                                              2

       Normalised Cartesian orbitals:

                        Set   Shell   Orbital            Exponent    Coefficient

                          1       1    1s                0.006400       0.016127

                          2       1    1px               0.007500       0.003146
                          2       1    1py               0.007500       0.003146
                          2       1    1pz               0.007500       0.003146

                          3       1    1px               1.370000       0.000000
                                                         0.367200       0.000000
                                                         0.119200       0.099836
                                                         0.044740       0.000000
                                                         0.017950       0.000000
                          3       1    1py               1.370000       0.000000
                                                         0.367200       0.000000
                                                         0.119200       0.099836
                                                         0.044740       0.000000
                                                         0.017950       0.000000
                          3       1    1pz               1.370000       0.000000
                                                         0.367200       0.000000
                                                         0.119200       0.099836
                                                         0.044740       0.000000
                                                         0.017950       0.000000

                          3       2    2px               1.370000       0.040809
                                                         0.367200       0.032230
                                                         0.119200       0.027364
                                                         0.044740       0.015237
                                                         0.017950       0.002664
                          3       2    2py               1.370000       0.040809
                                                         0.367200       0.032230
                                                         0.119200       0.027364
                                                         0.044740       0.015237
                                                         0.017950       0.002664
                          3       2    2pz               1.370000       0.040809
                                                         0.367200       0.032230
                                                         0.119200       0.027364
                                                         0.044740       0.015237
                                                         0.017950       0.002664

                          3       3    3px               1.370000       0.000000
                                                         0.367200       0.000000
                                                         0.119200       0.000000
                                                         0.044740       0.029330
                                                         0.017950       0.000000
                          3       3    3py               1.370000       0.000000
                                                         0.367200       0.000000
                                                         0.119200       0.000000
                                                         0.044740       0.029330
                                                         0.017950       0.000000
                          3       3    3pz               1.370000       0.000000
                                                         0.367200       0.000000
                                                         0.119200       0.000000
                                                         0.044740       0.029330
                                                         0.017950       0.000000

                          3       4    4px               1.370000       0.000000
                                                         0.367200       0.000000
                                                         0.119200       0.000000
                                                         0.044740       0.000000
                                                         0.017950       0.009365
                          3       4    4py               1.370000       0.000000
                                                         0.367200       0.000000
                                                         0.119200       0.000000
                                                         0.044740       0.000000
                                                         0.017950       0.009365
                          3       4    4pz               1.370000       0.000000
                                                         0.367200       0.000000
                                                         0.119200       0.000000
                                                         0.044740       0.000000
                                                         0.017950       0.009365

                          4       1    1s                3.003000       0.511857
                                                         1.212000       0.324312
                                                         0.493000       0.082572
                                                         0.095150       0.001221
                                                         0.047910      -0.000394
                                                         0.022200       0.000070

                          4       2    2s                3.003000       0.000000
                                                         1.212000       0.000000
                                                         0.493000       0.000000
                                                         0.095150       0.122100
                                                         0.047910       0.000000
                                                         0.022200       0.000000

                          4       3    3s                3.003000       0.000000
                                                         1.212000       0.000000
                                                         0.493000       0.000000
                                                         0.095150       0.000000
                                                         0.047910       0.072984
                                                         0.022200       0.000000

                          4       4    4s                3.003000      -0.093256
                                                         1.212000      -0.077300
                                                         0.493000      -0.050776
                                                         0.095150       0.033774
                                                         0.047910       0.040108
                                                         0.022200       0.011370

                          4       5    5s                3.003000       0.000000
                                                         1.212000       0.000000
                                                         0.493000       0.000000
                                                         0.095150       0.000000
                                                         0.047910       0.000000
                                                         0.022200       0.040990

                          5       1    1dx2              0.027200       0.002999
                          5       1    1dxy              0.027200       0.005194
                          5       1    1dxz              0.027200       0.005194
                          5       1    1dy2              0.027200       0.002999
                          5       1    1dyz              0.027200       0.005194
                          5       1    1dz2              0.027200       0.002999

                          6       1    1fx3              0.050400       0.001772
                          6       1    1fx2y             0.050400       0.003962
                          6       1    1fx2z             0.050400       0.003962
                          6       1    1fxy2             0.050400       0.003962
                          6       1    1fxyz             0.050400       0.006862
                          6       1    1fxz2             0.050400       0.003962
                          6       1    1fy3              0.050400       0.001772
                          6       1    1fy2z             0.050400       0.003962
                          6       1    1fyz2             0.050400       0.003962
                          6       1    1fz3              0.050400       0.001772

                          7       1    1dx2              0.335200       0.243048
                                                         0.148200       0.000000
                                                         0.065600       0.000000
                          7       1    1dxy              0.335200       0.420971
                                                         0.148200       0.000000
                                                         0.065600       0.000000
                          7       1    1dxz              0.335200       0.420971
                                                         0.148200       0.000000
                                                         0.065600       0.000000
[...]

 M. Del Ben, O. Schuett, T. Wentz, P. Messmer, J. Hutter, J. VandeVondele.
 Comput. Phys. Commun. 187, 120-129 (2015).
 Enabling simulation at the fifth rung of DFT: Large scale RPA calculations with 
 excellent time to solution.
 https://doi.org/10.1016/j.cpc.2014.10.021

 J. Hutter, M. Iannuzzi, F. Schiffmann, J. VandeVondele.
 WIREs Comput Mol Sci. 4, 15-25 (2014).
 CP2K: atomistic simulations of condensed matter systems.
 https://doi.org/10.1002/wcms.1159

 U. Borstnik, J. VandeVondele, V. Weber, J. Hutter.
 Parallel Comput. 40, 47-58 (2014).
 Sparse matrix multiplication: The distributed block-compressed sparse row 
 library.
 https://doi.org/10.1016/j.parco.2014.03.012

 M. Del Ben, J. Hutter, J. VandeVondele.
 J. Chem. Theory Comput. 9, 2654-2671 (2013).
 Electron Correlation in the Condensed Phase from a Resolution of Identity 
 Approach Based on the Gaussian and Plane Waves Scheme.
 https://doi.org/10.1021/ct4002202

 M. Del Ben, J. Hutter, J. VandeVondele.
 J. Chem. Theory Comput. 8, 4177-4188 (2012).
 Second-Order Moller-Plesset Perturbation Theory in the Condensed Phase: An 
 Efficient and Massively Parallel Gaussian and Plane Waves Approach.
 https://doi.org/10.1021/ct300531w

 M. Guidon, J. Hutter, J. VandeVondele.
 J. Chem. Theory Comput. 5, 3010-3021 (2009).
 Robust Periodic Hartree-Fock Exchange for Large-Scale Simulations Using 
 Gaussian Basis Sets.
 https://doi.org/10.1021/ct900494g

 M. Guidon, F. Schiffmann, J. Hutter, J. VandeVondele.
 J. Chem. Phys. 128, 214104 (2008).
 Ab initio molecular dynamics using hybrid density functionals.
 https://doi.org/10.1063/1.2931945

 L. Genovese, T. Deutsch, S. Goedecker.
 J. Chem. Phys. 127, 054704 (2007).
 Efficient and accurate three-dimensional Poisson solver for surface problems.
 https://doi.org/10.1063/1.2754685

 J. VandeVondele, J. Hutter.
 J. Chem. Phys. 127, 114105 (2007).
 Gaussian basis sets for accurate calculations on molecular systems in gas and 
 condensed phases.
 https://doi.org/10.1063/1.2770708

 L. Genovese, T. Deutsch, A. Neelov, S. Goedecker, G. Beylkin.
 J. Chem. Phys. 125, 074105 (2006).
 Efficient solution of Poisson's equation with free boundary conditions.
 https://doi.org/10.1063/1.2335442

 M. Frigo, S. G. Johnson.
 Proc. IEEE 93, 216-231 (2005).
 The design and implementation of FFTW3.
 https://doi.org/10.1109/JPROC.2004.840301

 M. Krack, M. Parrinello.
 Phys. Chem. Chem. Phys. 2, 2105-2112 (2000).
 All-electron ab-initio molecular dynamics.
 https://doi.org/10.1039/b001167n

 G. Lippert, J. Hutter, M. Parrinello.
 Theor. Chem. Acc. 103, 124-140 (1999).
 The Gaussian and augmented-plane-wave density functional method for ab initio 
 molecular dynamics simulations.
 https://doi.org/10.1007/s002140050523

 J. P. Perdew, K. Burke, M. Ernzerhof.
 Phys. Rev. Lett. 77, 3865-3868 (1996).
 Generalized gradient approximation made simple.
 https://doi.org/10.1103/PhysRevLett.77.3865


 -------------------------------------------------------------------------------
 -                                                                             -
 -                                T I M I N G                                  -
 -                                                                             -
 -------------------------------------------------------------------------------
 SUBROUTINE                       CALLS  ASD         SELF TIME        TOTAL TIME
                                MAXIMUM       AVERAGE  MAXIMUM  AVERAGE  MAXIMUM
 CP2K                                 1  1.0    0.035    0.060  333.152  333.152
 qs_energies                          1  2.0    0.001    0.001  331.554  331.809
 scf_env_do_scf                       1  3.0    0.000    0.000  324.251  324.252
 scf_env_do_scf_inner_loop           92  4.0    0.002    0.006  324.251  324.252
 qs_ks_build_kohn_sham_matrix        93  7.0    0.014    0.017  257.129  257.162
 qs_ks_update_qs_env                 92  5.0    0.001    0.001  255.476  255.509
 rebuild_ks_matrix                   92  6.0    0.000    0.000  255.466  255.499
 fft_wrap_pw1pw2                   1944  9.9    0.044    0.058  110.889  112.509
 fft_wrap_pw1pw2_250               1386 11.1    4.761    5.311  107.271  108.502
 fft3d_ps                          1944 11.9   43.752   48.550   89.381   90.746
 pw_poisson_solve                    93  8.0    1.656    1.845   80.619   80.653
 qs_vxc_create                       93  8.0    0.001    0.001   66.535   66.537
 xc_vxc_pw_create                    92  9.0    1.150    1.283   66.534   66.535
 ps_wavelet_solve                    93  9.0   41.914   47.286   53.830   54.187
 xc_pw_derive                       552 11.0    0.006    0.007   48.425   49.633
 hfx_ks_matrix                       93  8.0    0.003    0.004   49.538   49.631
 integrate_four_center               93  9.0    1.997    4.208   49.533   49.625
 mp_alltoall_d54                     93 10.0    7.842   41.966    7.842   41.966
 mp_alltoall_z22v                  1944 13.9   35.065   39.044   35.065   39.044
 mp_sync                            923  9.6   35.114   37.995   35.114   37.995
 integrate_four_center_main          93 10.0    0.547   21.137    0.923   37.562
 qs_rho_update_rho_low               93  5.0    0.001    0.001   35.090   35.090
 calculate_rho_elec                  93  6.0    0.909    0.969   34.947   34.947
 xc_pw_divergence                    92 10.0    0.003    0.004   33.017   34.237
 xc_rho_set_and_dset_create          92 10.0    0.824    1.049   31.697   33.184
 gspace_mixing                       91  5.0    0.889    0.948   32.725   32.725
 x_to_yz                           1017 13.1    7.432    8.114   24.090   25.060
 yz_to_x                            927 12.8    3.100    3.775   21.507   25.009
 broyden_mixing                      91  6.0   24.373   24.818   24.762   24.904
 density_rs2pw                       93  7.0    0.006    0.007   24.320   24.833
 sum_up_and_integrate                93  8.0    0.001    0.002   21.307   21.420
 integrate_v_rspace                  93  9.0    0.002    0.003   21.034   21.291
 potential_pw2rs                     93 10.0    0.048    0.052   18.520   18.677
 prepare_gapw_den                    93  8.0    0.002    0.002   18.039   18.297
 integrate_four_center_bin         7201 11.0    0.376   16.425    0.376   16.425
 transfer_pw2rs                     466 10.6    0.007    0.009   13.699   14.101
 put_rho0_on_grid                    93  9.0    0.914    0.980   13.479   13.738
 transfer_rs2pw                     466  8.4    0.012    0.017   11.945   12.556
 mp_waitany                       12320 11.5   10.725   11.879   10.725   11.879
 grid_collocate_task_list            93  7.0    9.318   10.328    9.318   10.328
 mp_alltoall_d11v                  1728  9.5    5.606   10.247    5.606   10.247
 calc_screening_functions             1 10.0    8.651    9.218    9.630   10.200
 mp_sum_d                          2473  6.6    8.591    9.845    8.591    9.845
 transfer_pw2rs_250                 187 11.0    2.857    3.099    8.950    9.417
 transfer_rs2pw_250                 187 10.0    3.143    3.441    8.268    8.862
 xc_functional_eval                 460 10.9    0.001    0.002    6.818    8.033
 pbe_lda_eval                       460 11.9    6.818    8.031    6.818    8.031
 pw_scatter_p                      1017 12.1    7.293    7.400    7.293    7.400
 mp_alltoall_d45                     94 10.0    3.723    7.361    3.723    7.361
 pw_gather_p                        927 11.8    6.107    6.972    6.107    6.972
 mp2_main                             1  3.0    0.000    0.000    6.393    6.648
 calculate_vxc_atom                  93  8.0    0.039    0.664    6.285    6.286
 integrate_vhg0_rspace               93  8.0    0.180    0.221    6.092    6.118
 pw_derive                          831 11.3    5.360    5.702    5.360    5.702
 gaVxcgb_GC                         184  9.0    0.114    5.492    0.114    5.492
 mp2_gpw_main                         1  4.0    0.000    0.000    4.532    4.542
 calculate_rho_atom                 186  9.0    1.116    4.299    1.116    4.299
 rpa_ri_compute_en                    1  5.0    0.000    0.000    3.968    3.968
 rpa_num_int                          1  6.0    0.001    0.001    3.940    3.942
 compute_GW_self_energy             100  7.0    0.001    0.001    3.422    3.619
 compute_GW_self_energy_deep        100  8.0    2.252    2.452    3.265    3.462
 cp2k_distribution_to_z_slices       93  9.0    1.726    1.818    3.227    3.443
 mp_sum_dv                         4336 11.1    3.299    3.436    3.299    3.436
 pw_copy                           1390 10.6    3.170    3.386    3.170    3.386
 fft_wrap_pw1pw2_90                 186 10.5    0.136    0.179    2.894    3.350
 mp_waitall_1                     28946 12.0    1.804    3.307    1.804    3.307
 pw_poisson_set                      94  8.9    0.003    0.004    2.967    3.001
 transfer_pw2rs_90                   93 12.0    0.533    0.622    2.117    2.705
 rs_grid_zero                       467 11.2    2.583    2.668    2.583    2.668
 rs_gather_matrices                  93 10.0    0.007    0.070    1.974    2.553
 grid_integrate_task_list            93 10.0    0.538    2.466    0.538    2.466
 pw_axpy                            925  9.3    2.067    2.221    2.067    2.221
 transfer_pw2rs_30                   93 12.0    1.270    1.368    1.944    2.135
 pw_copy_to_array                   927 11.8    1.888    2.104    1.888    2.104
 transfer_rs2pw_90                   93  9.0    0.486    0.554    1.715    2.012
 compute_vec_Sigma_x_minus_vxc_       1  4.0    0.000    0.000    1.667    1.667
 pw_integral_ab_c1d_c1d_gs           93  9.0    1.366    1.377    1.521    1.664
 powell_optimize                 644750 11.0    1.578    1.604    1.578    1.604
 pw_copy_from_array                1017 12.1    1.251    1.547    1.251    1.547
 transfer_rs2pw_30                   93  9.0    0.729    0.780    1.479    1.517
 mp_sum_dm                          655  7.6    0.892    1.441    0.892    1.441
 qs_scf_new_mos                      92  5.0    0.001    0.001    1.376    1.384
 parallel_gemm_fm                   404  8.3    0.001    0.001    1.145    1.162
 parallel_gemm_fm_gemm              404  9.3    0.001    0.001    1.145    1.162
 cp_fm_gemm                         404 10.3    1.144    1.161    1.144    1.161
 pw_poisson_rebuild                  93  9.0    0.000    0.000    1.106    1.131
 ps_wavelet_create                    1 10.0    0.000    0.000    1.106    1.131
 RS_z_slice_distribution              1 11.0    0.992    1.039    1.106    1.131
 mp_sendrecv_dv                    8742 10.0    1.069    1.119    1.069    1.119
 mp_irecv_dm3                      3360 11.5    0.484    1.020    0.484    1.020
 cp_fm_syevd                         98  7.0    0.001    0.001    1.001    1.004
 eigensolver_symm                    93  6.0    0.003    0.003    1.002    1.004
 pw_zero                            554 10.3    0.889    0.986    0.889    0.986
 mp_isend_dv                      11599 11.7    0.622    0.983    0.622    0.983
 Vh_1c_gg_integrals                  93  8.0    0.021    0.587    0.782    0.961
 calc_pair_dist_radii                 1 10.0    0.346    0.350    0.944    0.957
 cp_fm_redistribute_end              98  8.0    0.486    0.932    0.491    0.936
 cp_fm_syevd_base                    98  8.0    0.441    0.885    0.441    0.885
 mp_sum_l                          1121  6.5    0.600    0.821    0.600    0.821
 mp_isend_dm3                      3360 11.5    0.365    0.807    0.365    0.807
 integrate_four_center_load          93 10.0    0.000    0.001    0.577    0.793
 hfx_load_balance                     1 11.0    0.000    0.000    0.577    0.793
 hfx_load_balance_range               1 12.0    0.000    0.001    0.571    0.787
 mp_isendrecv_dv                  17484 12.0    0.359    0.744    0.359    0.744
 create_qs_kind_set                   1  2.0    0.000    0.000    0.732    0.734
 read_qs_kind                         2  3.0    0.399    0.409    0.732    0.734
 transfer_pw2rs_10                   93 12.0    0.320    0.337    0.681    0.731
 init_scf_run                         1  3.0    0.000    0.000    0.619    0.620
 scf_env_initial_rho_setup            1  4.0    0.000    0.000    0.604    0.605
 fft_wrap_pw1pw2_30                 186 10.5    0.022    0.025    0.549    0.572
 mp2_ri_gpw_compute_in                1  5.0    0.000    0.001    0.548    0.548
 mp2_ri_gpw_compute_in_loop           1  6.0    0.000    0.000    0.538    0.538
 qs_init_subsys                       1  2.0    0.005    0.005    0.510    0.510
 scale_and_distribute               186 10.0    0.464    0.494    0.464    0.494
 contract_B_L                         4  7.0    0.002    0.002    0.389    0.485
 transfer_rs2pw_10                   93  9.0    0.152    0.162    0.471    0.484
 qs_env_setup                         1  3.0    0.000    0.000    0.477    0.482
 qs_env_rebuild_pw_env                2  3.5    0.000    0.000    0.476    0.481
 pw_env_rebuild                       1  5.0    0.001    0.001    0.476    0.481
 mp_max_i                           604  3.2    0.296    0.454    0.296    0.454
 pw_grid_setup                        4  6.0    0.000    0.000    0.418    0.423
 pw_grid_setup_internal               4  7.0    0.010    0.013    0.418    0.423
 mp_sum_i                            19  9.5    0.256    0.417    0.256    0.417
 restraint_control                    1  2.0    0.000    0.000    0.255    0.416
 mp2_main_alloc_hfx                   1  4.0    0.160    0.416    0.160    0.416
 mp_cart_create                     461 10.1    0.306    0.402    0.306    0.402
 integrate_four_center_getP          93 10.0    0.010    0.012    0.362    0.389
 dbt_pgrid_create_expert             80 10.7    0.000    0.000    0.286    0.382
 mp2_eri_3c_integrate                 1  7.0    0.001    0.002    0.111    0.380
 integrate_set_3c                   976  8.0    0.100    0.346    0.110    0.378
 parser_read_line                 85396  4.0    0.029    0.032    0.333    0.337
 pw_grid_sort                         4  8.0    0.222    0.227    0.317    0.323
 integrate_four_center_dist_KS       93 10.0    0.011    0.013    0.319    0.321
 parser_read_line_low                95  5.0    0.022    0.131    0.304    0.308
 pw_scale                           369  9.5    0.241    0.305    0.241    0.305
 broadcast_input_information         95  6.0    0.064    0.076    0.281    0.292
 calculate_rho0_atom                186  9.0    0.244    0.253    0.244    0.253
 calculate_dm_sparse                 92  6.0    0.001    0.001    0.235    0.244
 cp_dbcsr_plus_fm_fm_t               92  7.0    0.001    0.002    0.234    0.243
 rpa_num_int_RPA_matrix_operati     100  7.0    0.001    0.002    0.227    0.227
 dbcsr_multiply_generic             153  8.1    0.006    0.007    0.187    0.201
 qs_energies_init_hamiltonians        1  3.0    0.000    0.000    0.172    0.172
 build_core_hamiltonian_matrix        1  4.0    0.000    0.000    0.166    0.166
 overlap_condnum                      1  5.0    0.000    0.000    0.163    0.164
 fft_wrap_pw1pw2_10                 186 10.5    0.005    0.005    0.130    0.155
 copy_dbcsr_to_fm                   131  6.5    0.002    0.003    0.146    0.152
 mixing_init                          1  5.0    0.146    0.151    0.150    0.151
 cp_fm_cholesky_invert              101  8.0    0.142    0.150    0.142    0.150
 mp_bcast_i_src                     380  7.0    0.112    0.148    0.112    0.148
 dbcsr_complete_redistribute        319  8.4    0.014    0.021    0.141    0.144
 calculate_rho_atom_coeff            93  6.0    0.013    0.045    0.142    0.142
 calc_mat_Q                         100  8.0    0.000    0.000    0.134    0.140
 mp_bcast_am_src                     95  7.0    0.092    0.121    0.102    0.138
 update_ks_atom                      93  8.0    0.009    0.038    0.087    0.135
 xc_pw_smooth                        92 10.0    0.000    0.000    0.097    0.133
 contract_S_to_Q                    100  9.0    0.000    0.000    0.124    0.129
 mp_bcast_dm                        372  9.0    0.078    0.127    0.078    0.127
 arnoldi_conjugate_gradient           5  6.0    0.003    0.004    0.123    0.124
 scf_post_calculation_gpw             1  3.0    0.000    0.000    0.118    0.118
 write_available_results              1  4.0    0.000    0.000    0.117    0.117
 write_mo_free_results                1  5.0    0.013    0.014    0.117    0.117
 vxc_of_r_new                       368  9.0    0.000    0.018    0.002    0.115
 sort_shells                          4  9.0    0.095    0.097    0.095    0.097
 make_m2s                           306  9.1    0.005    0.005    0.091    0.093
 dbt_total                            8  8.0    0.000    0.000    0.092    0.092
 start_bse_calculation                1  7.0    0.000    0.000    0.086    0.086
 cp_fm_cholesky_decompose           102  9.0    0.084    0.085    0.084    0.085
 dbcsr_desymmetrize_deep            133  7.5    0.003    0.005    0.081    0.084
 compute_Erpa_by_freq_int           100  8.0    0.001    0.001    0.084    0.084
 copy_fm_to_dbcsr                   188  8.0    0.001    0.001    0.081    0.084
 dbt_contract                         4  9.0    0.001    0.001    0.084    0.084
 rs_scatter_matrices                 93  7.0    0.001    0.006    0.083    0.084
 offload_free_buffer                101  8.5    0.053    0.079    0.053    0.079
 dbcsr_sym_matrix_vector_mult       484  7.0    0.008    0.008    0.054    0.078
 cp_fm_redistribute_start            98  8.0    0.054    0.059    0.068    0.077
 multiply_cannon                    153  9.1    0.011    0.012    0.063    0.071
 mp_irecv_dv                      11603 11.7    0.038    0.068    0.038    0.068
 cp_fm_to_fm_submat_general         112 10.1    0.054    0.062    0.054    0.062
 dbt_tas_multiply                     8 11.5    0.000    0.000    0.062    0.062
 dbt_tas_total                        8 12.5    0.001    0.004    0.061    0.061
 mp_alltoall_i22                    452  9.2    0.054    0.058    0.054    0.058
 dbcsr_finalize                    2530 10.7    0.009    0.017    0.032    0.057
 hirshfeld_integration                1  6.0    0.001    0.003    0.052    0.052
 calculate_hirshfeld_normalizat       1  6.0    0.001    0.003    0.050    0.052
 pw_grid_assign                       4  8.0    0.050    0.051    0.051    0.051
 make_images                        306 10.1    0.009    0.010    0.047    0.049
 diagonalize_C                        1  8.0    0.000    0.000    0.049    0.049
 dbcsr_add_d                        806  7.2    0.001    0.001    0.006    0.047
 dbcsr_add_anytype                  806  8.2    0.001    0.008    0.006    0.046
 multiply_cannon_loop               153 10.1    0.008    0.008    0.038    0.045
 cp_fm_power                          2  7.5    0.000    0.001    0.042    0.042
 mp_alltoall_i11v                  1090  9.3    0.041    0.041    0.041    0.041
 compute_max_radius                   1  6.0    0.018    0.038    0.018    0.038
 hybrid_alltoall_any                439 11.0    0.005    0.007    0.032    0.037
 cp_fm_symm                          93  7.0    0.033    0.036    0.033    0.036
 -------------------------------------------------------------------------------

 The number of warnings for this run is : 1
 
 -------------------------------------------------------------------------------
  **** **** ******  **  PROGRAM ENDED AT                 2025-03-18 23:42:11.986
 ***** ** ***  *** **   PROGRAM RAN ON                              i02r03c03s10
 **    ****   ******    PROGRAM RAN BY                                   di38fab
 ***** **    ** ** **   PROGRAM PROCESS ID                               2069745
  **** **  *******  **  PROGRAM STOPPED IN /hppfs/scratch/04/di38fab/05_MOL/W4-1
                                           1+ALK/li_h/aug-cc-pVQZ/GW+BSE
