 DBCSR| CPU Multiplication driver                                           BLAS (U)
 DBCSR| Multrec recursion limit                                              512 (U)
 DBCSR| Multiplication stack size                                           1000 (D)
 DBCSR| Maximum elements for images                                    UNLIMITED (U)
 DBCSR| Multiplicative factor virtual images                                   1 (U)
 DBCSR| Use multiplication densification                                       T (D)
 DBCSR| Multiplication size stacks                                             3 (U)
 DBCSR| Use memory pool for CPU allocation                                     F (U)
 DBCSR| Number of 3D layers                                               SINGLE (U)
 DBCSR| Use MPI memory allocation                                              F (U)
 DBCSR| Use RMA algorithm                                                      F (U)
 DBCSR| Use Communication thread                                               T (U)
 DBCSR| Communication thread load                                             75 (D)
 DBCSR| MPI: My process id                                                     0
 DBCSR| MPI: Number of processes                                              24
 DBCSR| OMP: Current number of threads                                         4
 DBCSR| OMP: Max number of threads                                             4
 DBCSR| Split modifier for TAS multiplication algorithm                  1.0E+00 (U)


  **** **** ******  **  PROGRAM STARTED AT               2025-03-03 23:40:11.691
 ***** ** ***  *** **   PROGRAM STARTED ON                          i04r11c06s04
 **    ****   ******    PROGRAM STARTED BY                               di38fab
 ***** **    ** ** **   PROGRAM PROCESS ID                               3568283
  **** **  *******  **  PROGRAM STARTED IN /hppfs/scratch/04/di38fab/05_MOL/W4-1
                                           1+ALK/c2/DZVP

 CP2K| version string:                 CP2K version 2025.1 (Development Version)
 CP2K| source code revision number:                                  git:47877ba
 CP2K| cp2kflags: omp libint fftw3 libxc parallel scalapack max_contr=4         
 CP2K| is freely available from                            https://www.cp2k.org/
 CP2K| Program compiled at                          Thu Feb 20 16:00:34 CET 2025
 CP2K| Program compiled on                                               login04
 CP2K| Program compiled for                                        Supermuc-foss
 CP2K| Data directory path          /hppfs/work/pn36zo/di38fab/newcp2k/cp2k/data
 CP2K| Input file name                                                    GW.inp

 GLOBAL| Force Environment number                                              1
 GLOBAL| Basis set file name            /hppfs/scratch/04/di38fab/04_TMD/BASIS_A
 GLOBAL| Potential file name            /hppfs/work/pn36zo/di38fab/cp2k/data/ALL
 GLOBAL| MM Potential file name                                     MM_POTENTIAL
 GLOBAL| Coordinate file name                                      __STD_INPUT__
 GLOBAL| Method name                                                        CP2K
 GLOBAL| Project name                                                       MoS2
 GLOBAL| Run type                                                         ENERGY
 GLOBAL| FFT library                                                       FFTW3
 GLOBAL| Diagonalization library                                       ScaLAPACK
 GLOBAL| DGEMM library                                                      BLAS
 GLOBAL| Orthonormality check for eigenvectors                          DISABLED
 GLOBAL| Matrix multiplication library                                 ScaLAPACK
 GLOBAL| All-to-all communication in single precision                          F
 GLOBAL| FFTs using library dependent lengths                                  F
 GLOBAL| Grid backend                                                       AUTO
 GLOBAL| Global print level                                               MEDIUM
 GLOBAL| MPI I/O enabled                                                       T
 GLOBAL| Total number of message passing processes                            24
 GLOBAL| Number of threads for this process                                    4
 GLOBAL| This output is from process                                           0
 GLOBAL| OpenMP stack size per thread (OMP_STACKSIZE)                    default
 GLOBAL| CPU model name             Intel(R) Xeon(R) Platinum 8174 CPU @ 3.10GHz

 MEMORY| system memory details [Kb]
 MEMORY|                        rank 0           min           max       average
 MEMORY| MemTotal             98436648      98436648      98436660      98436654
 MEMORY| MemFree              84196136      84021348      84196136      84108742
 MEMORY| Buffers                     0             0             0             0
 MEMORY| Cached                2398348       2398348       2398964       2398656
 MEMORY| Slab                  1231424       1231424       1241420       1236422
 MEMORY| SReclaimable           271136        271136        274388        272762
 MEMORY| MemLikelyFree        86865620      86694700      86865620      86780160


 *** Fundamental physical constants (SI units) ***

 *** Literature: B. J. Mohr and B. N. Taylor,
 ***             CODATA recommended values of the fundamental physical
 ***             constants: 2006, Web Version 5.1
 ***             http://physics.nist.gov/constants

 Speed of light in vacuum [m/s]                             2.99792458000000E+08
 Magnetic constant or permeability of vacuum [N/A**2]       1.25663706143592E-06
 Electric constant or permittivity of vacuum [F/m]          8.85418781762039E-12
 Planck constant (h) [J*s]                                  6.62606896000000E-34
 Planck constant (h-bar) [J*s]                              1.05457162825177E-34
 Elementary charge [C]                                      1.60217648700000E-19
 Electron mass [kg]                                         9.10938215000000E-31
 Electron g factor [ ]                                     -2.00231930436220E+00
 Proton mass [kg]                                           1.67262163700000E-27
 Fine-structure constant                                    7.29735253760000E-03
 Rydberg constant [1/m]                                     1.09737315685270E+07
 Avogadro constant [1/mol]                                  6.02214179000000E+23
 Boltzmann constant [J/K]                                   1.38065040000000E-23
 Atomic mass unit [kg]                                      1.66053878200000E-27
 Bohr radius [m]                                            5.29177208590000E-11

 *** Conversion factors ***

 [u] -> [a.u.]                                              1.82288848426455E+03
 [Angstrom] -> [Bohr] = [a.u.]                              1.88972613288564E+00
 [a.u.] = [Bohr] -> [Angstrom]                              5.29177208590000E-01
 [a.u.] -> [s]                                              2.41888432650478E-17
 [a.u.] -> [fs]                                             2.41888432650478E-02
 [a.u.] -> [J]                                              4.35974393937059E-18
 [a.u.] -> [N]                                              8.23872205491840E-08
 [a.u.] -> [K]                                              3.15774647902944E+05
 [a.u.] -> [kJ/mol]                                         2.62549961709828E+03
 [a.u.] -> [kcal/mol]                                       6.27509468713739E+02
 [a.u.] -> [Pa]                                             2.94210107994716E+13
 [a.u.] -> [bar]                                            2.94210107994716E+08
 [a.u.] -> [atm]                                            2.90362800883016E+08
 [a.u.] -> [eV]                                             2.72113838565563E+01
 [a.u.] -> [Hz]                                             6.57968392072181E+15
 [a.u.] -> [1/cm] (wave numbers)                            2.19474631370540E+05
 [a.u./Bohr**2] -> [1/cm]                                   5.14048714338585E+03
 

 CELL_TOP| Volume [angstrom^3]:                                     27000.000000
 CELL_TOP| Vector a [angstrom    30.000     0.000     0.000   |a| =    30.000000
 CELL_TOP| Vector b [angstrom     0.000    30.000     0.000   |b| =    30.000000
 CELL_TOP| Vector c [angstrom     0.000     0.000    30.000   |c| =    30.000000
 CELL_TOP| Angle (b,c), alpha [degree]:                                90.000000
 CELL_TOP| Angle (a,c), beta  [degree]:                                90.000000
 CELL_TOP| Angle (a,b), gamma [degree]:                                90.000000
 CELL_TOP| Numerically orthorhombic:                                         YES
 CELL_TOP| Periodicity                                                      NONE

 GENERATE|  Preliminary Number of Bonds generated:                             0
 GENERATE|  Achieved consistency in connectivity generation.

 CELL| Volume [angstrom^3]:                                         27000.000000
 CELL| Vector a [angstrom]:      30.000     0.000     0.000   |a| =    30.000000
 CELL| Vector b [angstrom]:       0.000    30.000     0.000   |b| =    30.000000
 CELL| Vector c [angstrom]:       0.000     0.000    30.000   |c| =    30.000000
 CELL| Angle (b,c), alpha [degree]:                                    90.000000
 CELL| Angle (a,c), beta  [degree]:                                    90.000000
 CELL| Angle (a,b), gamma [degree]:                                    90.000000
 CELL| Numerically orthorhombic:                                             YES
 CELL| Periodicity                                                          NONE

 CELL_REF| Volume [angstrom^3]:                                     27000.000000
 CELL_REF| Vector a [angstrom    30.000     0.000     0.000   |a| =    30.000000
 CELL_REF| Vector b [angstrom     0.000    30.000     0.000   |b| =    30.000000
 CELL_REF| Vector c [angstrom     0.000     0.000    30.000   |c| =    30.000000
 CELL_REF| Angle (b,c), alpha [degree]:                                90.000000
 CELL_REF| Angle (a,c), beta  [degree]:                                90.000000
 CELL_REF| Angle (a,b), gamma [degree]:                                90.000000
 CELL_REF| Numerically orthorhombic:                                         YES
 CELL_REF| Periodicity                                                      NONE

 *******************************************************************************
 *******************************************************************************
 **                                                                           **
 **     #####                         ##              ##                      **
 **    ##   ##            ##          ##              ##                      **
 **   ##     ##                       ##            ######                    **
 **   ##     ##  ##   ##  ##   #####  ##  ##   ####   ##    #####    #####    **
 **   ##     ##  ##   ##  ##  ##      ## ##   ##      ##   ##   ##  ##   ##   **
 **   ##  ## ##  ##   ##  ##  ##      ####     ###    ##   ######   ######    **
 **    ##  ###   ##   ##  ##  ##      ## ##      ##   ##   ##       ##        **
 **     #######   #####   ##   #####  ##  ##  ####    ##    #####   ##        **
 **           ##                                                    ##        **
 **                                                                           **
 **                                                ... make the atoms dance   **
 **                                                                           **
 **            Copyright (C) by CP2K developers group (2000-2025)             **
 **                      J. Chem. Phys. 152, 194103 (2020)                    **
 **                                                                           **
 *******************************************************************************

 DFT| Spin restricted Kohn-Sham (RKS) calculation                            RKS
 DFT| Multiplicity                                                             1
 DFT| Number of spin states                                                    1
 DFT| Charge                                                                   0
 DFT| Self-interaction correction (SIC)                                       NO
 DFT| Cutoffs: density                                              1.000000E-10
 DFT|          gradient                                             1.000000E-10
 DFT|          tau                                                  1.000000E-10
 DFT|          cutoff_smoothing_range                               0.000000E+00
 DFT| XC density smoothing                                                  NONE
 DFT| XC derivatives                                                          PW

 FUNCTIONAL| PBE:
 FUNCTIONAL| J.P.Perdew, K.Burke, M.Ernzerhof, Phys. Rev. Letter, vol. 77, n 18,
 FUNCTIONAL|  pp. 3865-3868, (1996)sx=0.750sc=1.000{spin unpolarized}           


 QS| Method:                                                                GAPW
 QS| Density plane wave grid type                        NON-SPHERICAL FULLSPACE
 QS| Number of grid levels:                                                    4
 QS| Density cutoff [a.u.]:                                                250.0
 QS| Multi grid cutoff [a.u.]: 1) grid level                               250.0
 QS|                           2) grid level                                83.3
 QS|                           3) grid level                                27.8
 QS|                           4) grid level                                 9.3
 QS| Grid level progression factor:                                          3.0
 QS| Relative density cutoff [a.u.]:                                        50.0
 QS| Interaction thresholds: eps_pgf_orb:                                1.0E-12
 QS|                         eps_filter_matrix:                          0.0E+00
 QS|                         eps_core_charge:                            1.0E-14
 QS|                         eps_rho_gspace:                             1.0E-12
 QS|                         eps_rho_rspace:                             1.0E-12
 QS|                         eps_gvg_rspace:                             1.0E-06
 QS|                         eps_ppl:                                    1.0E-02
 QS|                         eps_ppnl:                                   1.0E-08
 QS| GAPW|      One center basis from orbital basis primitives
 QS| GAPW|                   eps_fit:                                    1.0E-04
 QS| GAPW|                   eps_iso:                                    1.0E-12
 QS| GAPW|                   eps_svd:                                    1.0E-08
 QS| GAPW|                   eps_cpc:                                    1.0E-12
 QS| GAPW|   atom-r-grid: quadrature:                                     GC_LOG
 QS| GAPW|      atom-s-grid:  max l :                                          6
 QS| GAPW|      max_l_rho0 :                                                   2


 ATOMIC KIND INFORMATION

  1. Atomic kind: C                                     Number of atoms:       2

     Orbital Basis Set                                        aug-DZVP-MOLOPT-ae

       Number of orbital shell sets:                                           2
       Number of orbital shells:                                              10
       Number of primitive Cartesian functions:                               13
       Number of Cartesian basis functions:                                   35
       Number of spherical basis functions:                                   30
       Norm type:                                                              2

       Normalised Cartesian orbitals:

                        Set   Shell   Orbital            Exponent    Coefficient

                          1       1    2px               0.050000       0.000000
                                                         0.096935       0.005344
                                                         0.300899       0.144116
                                                         0.937529       0.673511
                                                         4.145546       1.425967
                          1       1    2py               0.050000       0.000000
                                                         0.096935       0.005344
                                                         0.300899       0.144116
                                                         0.937529       0.673511
                                                         4.145546       1.425967
                          1       1    2pz               0.050000       0.000000
                                                         0.096935       0.005344
                                                         0.300899       0.144116
                                                         0.937529       0.673511
                                                         4.145546       1.425967

                          1       2    3px               0.050000       0.000000
                                                         0.096935       0.066903
                                                         0.300899       0.082631
                                                         0.937529      -0.414500
                                                         4.145546      -0.833488
                          1       2    3py               0.050000       0.000000
                                                         0.096935       0.066903
                                                         0.300899       0.082631
                                                         0.937529      -0.414500
                                                         4.145546      -0.833488
                          1       2    3pz               0.050000       0.000000
                                                         0.096935       0.066903
                                                         0.300899       0.082631
                                                         0.937529      -0.414500
                                                         4.145546      -0.833488

                          1       3    4px               0.050000       0.052477
                                                         0.096935      -0.149600
                                                         0.300899      -0.031452
                                                         0.937529       0.106528
                                                         4.145546       0.000000
                          1       3    4py               0.050000       0.052477
                                                         0.096935      -0.149600
                                                         0.300899      -0.031452
                                                         0.937529       0.106528
                                                         4.145546       0.000000
                          1       3    4pz               0.050000       0.052477
                                                         0.096935      -0.149600
                                                         0.300899      -0.031452
                                                         0.937529       0.106528
                                                         4.145546       0.000000

                          1       4    3dx2              0.050000       0.000000
                                                         0.096935       0.001258
                                                         0.300899       0.105504
                                                         0.937529       0.830801
                                                         4.145546       0.718979
                          1       4    3dxy              0.050000       0.000000
                                                         0.096935       0.002179
                                                         0.300899       0.182739
                                                         0.937529       1.438990
                                                         4.145546       1.245309
                          1       4    3dxz              0.050000       0.000000
                                                         0.096935       0.002179
                                                         0.300899       0.182739
                                                         0.937529       1.438990
                                                         4.145546       1.245309
                          1       4    3dy2              0.050000       0.000000
                                                         0.096935       0.001258
                                                         0.300899       0.105504
                                                         0.937529       0.830801
                                                         4.145546       0.718979
                          1       4    3dyz              0.050000       0.000000
                                                         0.096935       0.002179
                                                         0.300899       0.182739
                                                         0.937529       1.438990
                                                         4.145546       1.245309
                          1       4    3dz2              0.050000       0.000000
                                                         0.096935       0.001258
                                                         0.300899       0.105504
                                                         0.937529       0.830801
                                                         4.145546       0.718979

                          1       5    4dx2              0.050000      -0.011665
                                                         0.096935       0.057456
                                                         0.300899      -0.258169
                                                         0.937529       0.000000
                                                         4.145546       0.000000
                          1       5    4dxy              0.050000      -0.020204
                                                         0.096935       0.099516
                                                         0.300899      -0.447162
                                                         0.937529       0.000000
                                                         4.145546       0.000000
                          1       5    4dxz              0.050000      -0.020204
                                                         0.096935       0.099516
                                                         0.300899      -0.447162
                                                         0.937529       0.000000
                                                         4.145546       0.000000
                          1       5    4dy2              0.050000      -0.011665
                                                         0.096935       0.057456
                                                         0.300899      -0.258169
                                                         0.937529       0.000000
                                                         4.145546       0.000000
                          1       5    4dyz              0.050000      -0.020204
                                                         0.096935       0.099516
                                                         0.300899      -0.447162
                                                         0.937529       0.000000
                                                         4.145546       0.000000
                          1       5    4dz2              0.050000      -0.011665
                                                         0.096935       0.057456
                                                         0.300899      -0.258169
                                                         0.937529       0.000000
                                                         4.145546       0.000000

                          1       6    4fx3              0.050000      -0.000180
                                                         0.096935       0.008160
                                                         0.300899       0.004002
                                                         0.937529       0.000000
                                                         4.145546       0.000000
                          1       6    4fx2y             0.050000      -0.000402
                                                         0.096935       0.018246
                                                         0.300899       0.008949
                                                         0.937529       0.000000
                                                         4.145546       0.000000
                          1       6    4fx2z             0.050000      -0.000402
                                                         0.096935       0.018246
                                                         0.300899       0.008949
                                                         0.937529       0.000000
                                                         4.145546       0.000000
                          1       6    4fxy2             0.050000      -0.000402
                                                         0.096935       0.018246
                                                         0.300899       0.008949
                                                         0.937529       0.000000
                                                         4.145546       0.000000
                          1       6    4fxyz             0.050000      -0.000696
                                                         0.096935       0.031603
                                                         0.300899       0.015500
                                                         0.937529       0.000000
                                                         4.145546       0.000000
                          1       6    4fxz2             0.050000      -0.000402
                                                         0.096935       0.018246
                                                         0.300899       0.008949
                                                         0.937529       0.000000
                                                         4.145546       0.000000
                          1       6    4fy3              0.050000      -0.000180
                                                         0.096935       0.008160
                                                         0.300899       0.004002
                                                         0.937529       0.000000
                                                         4.145546       0.000000
                          1       6    4fy2z             0.050000      -0.000402
                                                         0.096935       0.018246
                                                         0.300899       0.008949
                                                         0.937529       0.000000
                                                         4.145546       0.000000
                          1       6    4fyz2             0.050000      -0.000402
                                                         0.096935       0.018246
                                                         0.300899       0.008949
                                                         0.937529       0.000000
                                                         4.145546       0.000000
                          1       6    4fz3              0.050000      -0.000180
                                                         0.096935       0.008160
                                                         0.300899       0.004002
                                                         0.937529       0.000000
                                                         4.145546       0.000000

                          2       1    1s                0.060000       0.000000
                                                         0.161278       0.024253
                                                         0.523772      -0.029268
                                                         3.176528       0.666384
                                                        10.501907       2.110671
                                                        40.805234       2.242010
                                                       186.270922       1.801845
                                                      1238.394264      -0.490536

                          2       2    2s                0.060000       0.000000
                                                         0.161278       0.080328
                                                         0.523772       0.279468
                                                         3.176528      -0.079506
                                                        10.501907      -0.033488
                                                        40.805234       0.350132
                                                       186.270922      -0.108171
                                                      1238.394264       0.147138

                          2       3    3s                0.060000       0.000000
                                                         0.161278       0.225687
                                                         0.523772      -0.382710
                                                         3.176528      -0.308205
                                                        10.501907      -0.974990
                                                        40.805234      -2.174132
                                                       186.270922       1.755878
                                                      1238.394264     -12.484315

                          2       4    4s                0.060000      -0.055653
                                                         0.161278      -0.019607
                                                         0.523772       0.500289
                                                         3.176528       0.067234
                                                        10.501907       0.000000
                                                        40.805234       0.000000
                                                       186.270922       0.000000
                                                      1238.394264       0.000000

     RI Auxiliary Basis Set             RI_aug-DZVP-MOLOPT-ae_N_RI_047_s_p_d_f_g

       Number of orbital shell sets:                                          15
       Number of orbital shells:                                              15
       Number of primitive Cartesian functions:                               15
       Number of Cartesian basis functions:                                   56
       Number of spherical basis functions:                                   47
       Norm type:                                                              2

       Normalised Cartesian orbitals:

                        Set   Shell   Orbital            Exponent    Coefficient

                          1       1    1s                0.254842       0.255631

                          2       1   11dx2              0.281937       0.179546
                          2       1   11dxy              0.281937       0.310982
                          2       1   11dxz              0.281937       0.310982
                          2       1   11dy2              0.281937       0.179546
                          2       1   11dyz              0.281937       0.310982
                          2       1   11dz2              0.281937       0.179546

                          3       1    7px               0.299325       0.315587
                          3       1    7py               0.299325       0.315587
                          3       1    7pz               0.299325       0.315587

                          4       1   14fx3              0.339816       0.129793
                          4       1   14fx2y             0.339816       0.290226
                          4       1   14fx2z             0.339816       0.290226
                          4       1   14fxy2             0.339816       0.290226
                          4       1   14fxyz             0.339816       0.502687
                          4       1   14fxz2             0.339816       0.290226
                          4       1   14fy3              0.339816       0.129793
                          4       1   14fy2z             0.339816       0.290226
                          4       1   14fyz2             0.339816       0.290226
                          4       1   14fz3              0.339816       0.129793

                          5       1    2s                0.422589       0.373550

                          6       1   12dx2              0.811931       1.143056
                          6       1   12dxy              0.811931       1.979832
                          6       1   12dxz              0.811931       1.979832
                          6       1   12dy2              0.811931       1.143056
                          6       1   12dyz              0.811931       1.979832
                          6       1   12dz2              0.811931       1.143056

                          7       1    8px               0.939570       1.318564
                          7       1    8py               0.939570       1.318564
                          7       1    8pz               0.939570       1.318564

                          8       1    3s                1.299293       0.867342

                          9       1   15fx3              1.351194       2.897807
                          9       1   15fx2y             1.351194       6.479693
                          9       1   15fx2z             1.351194       6.479693
                          9       1   15fxy2             1.351194       6.479693
                          9       1   15fxyz             1.351194      11.223158
                          9       1   15fxz2             1.351194       6.479693
                          9       1   15fy3              1.351194       2.897807
                          9       1   15fy2z             1.351194       6.479693
                          9       1   15fyz2             1.351194       6.479693
                          9       1   15fz3              1.351194       2.897807

                         10       1   13dx2              2.931213      10.807926
                         10       1   13dxy              2.931213      18.719878
                         10       1   13dxz              2.931213      18.719878
                         10       1   13dy2              2.931213      10.807926
                         10       1   13dyz              2.931213      18.719878
                         10       1   13dz2              2.931213      10.807926

                         11       1    9px               3.357160       6.477465
                         11       1    9py               3.357160       6.477465
                         11       1    9pz               3.357160       6.477465

                         12       1    4s                5.684723       2.623869

                         13       1   10px              16.365239      46.918381
                         13       1   10py              16.365239      46.918381
                         13       1   10pz              16.365239      46.918381

                         14       1    5s               22.016161       7.243797

                         15       1    6s               82.103967      19.439415

       Atomic covalent radius [Angstrom]:                                  0.770

       Atomic van der Waals radius [Angstrom]:                             1.700

     The atoms of this atomic kind are PAW atoms (GAPW):
       Hard Gaussian function radius:                                      1.512
       Rho0 radius:                                                        1.512
       Maximum GTO radius used for PAW projector construction:            24.566

     GAPW Soft Basis Set                                 aug-DZVP-MOLOPT-ae_soft

       Number of orbital shell sets:                                           2
       Number of orbital shells:                                              10
       Number of primitive Cartesian functions:                                9
       Number of Cartesian basis functions:                                   35
       Number of spherical basis functions:                                   30
       Norm type:                                                              2

       Normalised Cartesian orbitals:

                        Set   Shell   Orbital            Exponent    Coefficient

                          1       1    2px               0.050000       0.000000
                                                         0.096935       0.005344
                                                         0.300899       0.144116
                                                         0.937529       0.673511
                                                         4.145546       1.425967
                          1       1    2py               0.050000       0.000000
                                                         0.096935       0.005344
                                                         0.300899       0.144116
                                                         0.937529       0.673511
                                                         4.145546       1.425967
                          1       1    2pz               0.050000       0.000000
                                                         0.096935       0.005344
                                                         0.300899       0.144116
                                                         0.937529       0.673511
                                                         4.145546       1.425967

                          1       2    3px               0.050000       0.000000
                                                         0.096935       0.066903
                                                         0.300899       0.082631
                                                         0.937529      -0.414500
                                                         4.145546      -0.833488
                          1       2    3py               0.050000       0.000000
                                                         0.096935       0.066903
                                                         0.300899       0.082631
                                                         0.937529      -0.414500
                                                         4.145546      -0.833488
                          1       2    3pz               0.050000       0.000000
                                                         0.096935       0.066903
                                                         0.300899       0.082631
                                                         0.937529      -0.414500
                                                         4.145546      -0.833488

                          1       3    4px               0.050000       0.052477
                                                         0.096935      -0.149600
                                                         0.300899      -0.031452
                                                         0.937529       0.106528
                                                         4.145546       0.000000
                          1       3    4py               0.050000       0.052477
                                                         0.096935      -0.149600
                                                         0.300899      -0.031452
                                                         0.937529       0.106528
                                                         4.145546       0.000000
                          1       3    4pz               0.050000       0.052477
                                                         0.096935      -0.149600
                                                         0.300899      -0.031452
                                                         0.937529       0.106528
                                                         4.145546       0.000000

                          1       4    3dx2              0.050000       0.000000
                                                         0.096935       0.001258
                                                         0.300899       0.105504
                                                         0.937529       0.830801
                                                         4.145546       0.718979
                          1       4    3dxy              0.050000       0.000000
                                                         0.096935       0.002179
                                                         0.300899       0.182739
                                                         0.937529       1.438990
                                                         4.145546       1.245309
                          1       4    3dxz              0.050000       0.000000
                                                         0.096935       0.002179
                                                         0.300899       0.182739
                                                         0.937529       1.438990
                                                         4.145546       1.245309
                          1       4    3dy2              0.050000       0.000000
                                                         0.096935       0.001258
                                                         0.300899       0.105504
                                                         0.937529       0.830801
                                                         4.145546       0.718979
                          1       4    3dyz              0.050000       0.000000
                                                         0.096935       0.002179
                                                         0.300899       0.182739
                                                         0.937529       1.438990
                                                         4.145546       1.245309
                          1       4    3dz2              0.050000       0.000000
                                                         0.096935       0.001258
                                                         0.300899       0.105504
                                                         0.937529       0.830801
                                                         4.145546       0.718979

                          1       5    4dx2              0.050000      -0.011665
                                                         0.096935       0.057456
                                                         0.300899      -0.258169
                                                         0.937529       0.000000
                                                         4.145546       0.000000
                          1       5    4dxy              0.050000      -0.020204
                                                         0.096935       0.099516
                                                         0.300899      -0.447162
                                                         0.937529       0.000000
                                                         4.145546       0.000000
                          1       5    4dxz              0.050000      -0.020204
                                                         0.096935       0.099516
                                                         0.300899      -0.447162
                                                         0.937529       0.000000
                                                         4.145546       0.000000
                          1       5    4dy2              0.050000      -0.011665
                                                         0.096935       0.057456
                                                         0.300899      -0.258169
                                                         0.937529       0.000000
                                                         4.145546       0.000000
                          1       5    4dyz              0.050000      -0.020204
                                                         0.096935       0.099516
                                                         0.300899      -0.447162
                                                         0.937529       0.000000
                                                         4.145546       0.000000
                          1       5    4dz2              0.050000      -0.011665
                                                         0.096935       0.057456
                                                         0.300899      -0.258169
                                                         0.937529       0.000000
                                                         4.145546       0.000000

                          1       6    4fx3              0.050000      -0.000180
                                                         0.096935       0.008160
                                                         0.300899       0.004002
                                                         0.937529       0.000000
                                                         4.145546       0.000000
                          1       6    4fx2y             0.050000      -0.000402
                                                         0.096935       0.018246
                                                         0.300899       0.008949
                                                         0.937529       0.000000
                                                         4.145546       0.000000
                          1       6    4fx2z             0.050000      -0.000402
                                                         0.096935       0.018246
                                                         0.300899       0.008949
                                                         0.937529       0.000000
                                                         4.145546       0.000000
                          1       6    4fxy2             0.050000      -0.000402
                                                         0.096935       0.018246
                                                         0.300899       0.008949
                                                         0.937529       0.000000
                                                         4.145546       0.000000
                          1       6    4fxyz             0.050000      -0.000696
                                                         0.096935       0.031603
                                                         0.300899       0.015500
                                                         0.937529       0.000000
                                                         4.145546       0.000000
                          1       6    4fxz2             0.050000      -0.000402
                                                         0.096935       0.018246
                                                         0.300899       0.008949
                                                         0.937529       0.000000
                                                         4.145546       0.000000
                          1       6    4fy3              0.050000      -0.000180
                                                         0.096935       0.008160
                                                         0.300899       0.004002
                                                         0.937529       0.000000
                                                         4.145546       0.000000
                          1       6    4fy2z             0.050000      -0.000402
                                                         0.096935       0.018246
                                                         0.300899       0.008949
                                                         0.937529       0.000000
                                                         4.145546       0.000000
                          1       6    4fyz2             0.050000      -0.000402
                                                         0.096935       0.018246
                                                         0.300899       0.008949
                                                         0.937529       0.000000
                                                         4.145546       0.000000
                          1       6    4fz3              0.050000      -0.000180
                                                         0.096935       0.008160
                                                         0.300899       0.004002
                                                         0.937529       0.000000
                                                         4.145546       0.000000

                          2       1    1s                0.060000       0.000000
                                                         0.161278       0.024253
                                                         0.523772      -0.029268
                                                         3.176528       0.666384

                          2       2    2s                0.060000       0.000000
                                                         0.161278       0.080328
                                                         0.523772       0.279468
                                                         3.176528      -0.079506

                          2       3    3s                0.060000       0.000000
                                                         0.161278       0.225687
                                                         0.523772      -0.382710
                                                         3.176528      -0.308205

                          2       4    4s                0.060000      -0.055653
                                                         0.161278      -0.019607
                                                         0.523772       0.500289
                                                         3.176528       0.067234

     AE Potential information for                                            ALL

       Description:                                       All-electron potential
                                          Krack, Parrinello, PCCP 2, 2105 (2000)

       Gaussian exponent of the core charge distribution:               4.109048
       Electronic configuration (s p d ...):                           4   2   0


 MOLECULE KIND INFORMATION


 All atoms are their own molecule, skipping detailed information


 TOTAL NUMBERS AND MAXIMUM NUMBERS

  Total number of            - Atomic kinds:                                   1
                             - Atoms:                                          2
                             - Shell sets:                                     4
                             - Shells:                                        20
                             - Primitive Cartesian functions:                 26
                             - Cartesian basis functions:                     70
                             - Spherical basis functions:                     60

  Maximum angular momentum of the orbital basis functions:                     3


 MODULE QUICKSTEP: ATOMIC COORDINATES IN ANGSTROM

   Atom Kind Element         X             Y             Z       Z(eff)     Mass
      1    1 C     6     15.620000     15.000000     15.000000   6.0000  12.0107
      2    1 C     6     14.380000     15.000000     15.000000   6.0000  12.0107



 SCF PARAMETERS         Density guess:                                    ATOMIC
                        --------------------------------------------------------
                        max_scf:                                             500
                        max_scf_history:                                       0
                        max_diis:                                              4
                        --------------------------------------------------------
                        eps_scf:                                        1.00E-06
                        eps_scf_history:                                0.00E+00
                        eps_diis:                                       1.00E-01
                        eps_eigval:                                     1.00E-05
                        --------------------------------------------------------
                        level_shift [a.u.]:                             0.000000
                        added MOs                                        54    0
                        --------------------------------------------------------
                        Mixing method:                            BROYDEN_MIXING
                                                charge density mixing in g-space
                        --------------------------------------------------------
                        No outer SCF

 PW_GRID| Information for grid number                                          1
 PW_GRID| Grid distributed over                                    24 processors
 PW_GRID| Real space group dimensions                                    24    1
 PW_GRID| the grid is blocked:                                                NO
 PW_GRID| Cutoff [a.u.]                                                    250.0
 PW_GRID| spherical cutoff:                                                   NO
 PW_GRID|   Bounds   1           -202     202                Points:         405
 PW_GRID|   Bounds   2           -202     202                Points:         405
 PW_GRID|   Bounds   3           -202     202                Points:         405
 PW_GRID| Volume element (a.u.^3)  0.2743E-02     Volume (a.u.^3)    182205.0337
 PW_GRID| Grid span                                                    FULLSPACE
 PW_GRID|   Distribution                         Average         Max         Min
 PW_GRID|   G-Vectors                          2767921.9     2768175     2767770
 PW_GRID|   G-Rays                                6834.4        6835        6834
 PW_GRID|   Real Space Points                  2767921.9     2788425     2624400

 PW_GRID| Information for grid number                                          2
 PW_GRID| Number of the reference grid                                         1
 PW_GRID| Grid distributed over                                    24 processors
 PW_GRID| Real space group dimensions                                    24    1
 PW_GRID| the grid is blocked:                                                NO
 PW_GRID| Cutoff [a.u.]                                                     83.3
 PW_GRID| spherical cutoff:                                                   NO
 PW_GRID|   Bounds   1           -120     119                Points:         240
 PW_GRID|   Bounds   2           -120     119                Points:         240
 PW_GRID|   Bounds   3           -120     119                Points:         240
 PW_GRID| Volume element (a.u.^3)  0.1318E-01     Volume (a.u.^3)    182205.0337
 PW_GRID| Grid span                                                    FULLSPACE
 PW_GRID|   Distribution                         Average         Max         Min
 PW_GRID|   G-Vectors                           576000.0      576240      575760
 PW_GRID|   G-Rays                                2400.0        2401        2399
 PW_GRID|   Real Space Points                   576000.0      576000      576000

 PW_GRID| Information for grid number                                          3
 PW_GRID| Number of the reference grid                                         1
 PW_GRID| Grid distributed over                                    24 processors
 PW_GRID| Real space group dimensions                                    24    1
 PW_GRID| the grid is blocked:                                                NO
 PW_GRID| Cutoff [a.u.]                                                     27.8
 PW_GRID| spherical cutoff:                                                   NO
 PW_GRID|   Bounds   1            -67      67                Points:         135
 PW_GRID|   Bounds   2            -67      67                Points:         135
 PW_GRID|   Bounds   3            -67      67                Points:         135
 PW_GRID| Volume element (a.u.^3)  0.7406E-01     Volume (a.u.^3)    182205.0337
 PW_GRID| Grid span                                                    FULLSPACE
 PW_GRID|   Distribution                         Average         Max         Min
 PW_GRID|   G-Vectors                           102515.6      102735      102330
 PW_GRID|   G-Rays                                 759.4         761         758
 PW_GRID|   Real Space Points                   102515.6      109350       91125

 PW_GRID| Information for grid number                                          4
 PW_GRID| Number of the reference grid                                         1
 PW_GRID| Grid distributed over                                    24 processors
 PW_GRID| Real space group dimensions                                    24    1
 PW_GRID| the grid is blocked:                                                NO
 PW_GRID| Cutoff [a.u.]                                                      9.3
 PW_GRID| spherical cutoff:                                                   NO
 PW_GRID|   Bounds   1            -40      39                Points:          80
 PW_GRID|   Bounds   2            -40      39                Points:          80
 PW_GRID|   Bounds   3            -40      39                Points:          80
 PW_GRID| Volume element (a.u.^3)  0.3559         Volume (a.u.^3)    182205.0337
 PW_GRID| Grid span                                                    FULLSPACE
 PW_GRID|   Distribution                         Average         Max         Min
 PW_GRID|   G-Vectors                            21333.3       21360       21280
 PW_GRID|   G-Rays                                 266.7         267         266
 PW_GRID|   Real Space Points                    21333.3       25600       19200

 POISSON| Solver                                                         WAVELET
 POISSON| Wavelet| Scaling function                                           40
 POISSON| Periodicity                                                       NONE

 RS_GRID| Information for grid number                                          1
 RS_GRID|   Bounds   1           -202     202                Points:         405
 RS_GRID|   Bounds   2           -202     202                Points:         405
 RS_GRID|   Bounds   3           -202     202                Points:         405
 RS_GRID| Real space distribution over                                  4 groups
 RS_GRID| Real space distribution along direction                              2
 RS_GRID| Border size                                                         35
 RS_GRID| Real space distribution over                                  6 groups
 RS_GRID| Real space distribution along direction                              3
 RS_GRID| Border size                                                         35
 RS_GRID|   Distribution                         Average         Max         Min
 RS_GRID|   Planes                                 171.2         172         171
 RS_GRID|   Distribution                         Average         Max         Min
 RS_GRID|   Planes                                 137.5         138         137

 RS_GRID| Information for grid number                                          2
 RS_GRID|   Bounds   1           -120     119                Points:         240
 RS_GRID|   Bounds   2           -120     119                Points:         240
 RS_GRID|   Bounds   3           -120     119                Points:         240
 RS_GRID| Real space distribution over                                  4 groups
 RS_GRID| Real space distribution along direction                              2
 RS_GRID| Border size                                                         38
 RS_GRID| Real space distribution over                                  6 groups
 RS_GRID| Real space distribution along direction                              3
 RS_GRID| Border size                                                         38
 RS_GRID|   Distribution                         Average         Max         Min
 RS_GRID|   Planes                                 136.0         136         136
 RS_GRID|   Distribution                         Average         Max         Min
 RS_GRID|   Planes                                 116.0         116         116

 RS_GRID| Information for grid number                                          3
 RS_GRID|   Bounds   1            -67      67                Points:         135
 RS_GRID|   Bounds   2            -67      67                Points:         135
 RS_GRID|   Bounds   3            -67      67                Points:         135
 RS_GRID| Real space fully replicated
 RS_GRID| Group size                                                           1

 RS_GRID| Information for grid number                                          4
 RS_GRID|   Bounds   1            -40      39                Points:          80
 RS_GRID|   Bounds   2            -40      39                Points:          80
 RS_GRID|   Bounds   3            -40      39                Points:          80
 RS_GRID| Real space fully replicated
 RS_GRID| Group size                                                           1

  HFX_INFO| Replica ID:                                                        1
  HFX_INFO| FRACTION:                                               0.2500000000
  HFX_INFO| Interaction Potential:                                       COULOMB
  HFX_INFO| EPS_SCHWARZ:                                                 1.0E-10
  HFX_INFO| EPS_SCHWARZ_FORCES                                           1.0E-08
  HFX_INFO| EPS_STORAGE_SCALING:                                         1.0E+00
  HFX_INFO| NBINS:                                                            64
  HFX_INFO| BLOCK_SIZE:                                                        1
  HFX_INFO| Number of periodic shells considered:                           NONE
  HFX_INFO| Number of periodic cells considered:                            NONE

 
 RI-RPA| using GPW style
 

 OVERLAP MATRIX CONDITION NUMBER
 1-Norm Condition Number (Estimate)
   CN : |A|*|A^-1|:  5.324E+000 *  8.956E+002   = 4.769E+003  Log(1-CN):  3.6784
 1-Norm and 2-Norm Condition Numbers using Diagonalization
   CN : |A|*|A^-1|:  5.324E+000 *  8.956E+002   = 4.769E+003  Log(1-CN):  3.6784
   CN : max/min ev:  3.467E+000 /  1.709E-003   = 2.029E+003  Log(2-CN):  3.3072

 Number of electrons:                                                         12
 Number of occupied orbitals:                                                  6
 Number of molecular orbitals:                                                60

 Number of orbital functions:                                                 60
 Number of independent orbital functions:                                     60

 Extrapolation method: initial_guess

 Atomic guess: The first density matrix is obtained in terms of atomic orbitals
               and electronic configurations assigned to each atomic kind

 Guess for atomic kind: C

 Electronic structure
    Total number of core electrons                                          0.00
    Total number of valence electrons                                       6.00
    Total number of electrons                                               6.00
    Multiplicity                                                   not specified
    S      2.00  2.00
    P      2.00


 *******************************************************************************
                  Iteration          Convergence                     Energy [au]
 *******************************************************************************
                          1        0.133902                     -37.363061759844
                          2        0.102325                     -37.368472442706
                          3        0.860737E-03                 -37.376215693871
                          4        0.849047E-04                 -37.376216293501
                          5        0.219397E-06                 -37.376216298714

 Energy components [Hartree]           Total Energy ::          -37.376216298714
                                        Band Energy ::          -21.245708131868
                                     Kinetic Energy ::           37.464666877769
                                   Potential Energy ::          -74.840883176484
                                      Virial (-V/T) ::            1.997639093406
                                        Core Energy ::          -50.271057779086
                                          XC Energy ::           -4.736056292831
                                     Coulomb Energy ::           17.630897773203

 Orbital energies  State     L     Occupation   Energy[a.u.]          Energy[eV]

                       1     0          2.000      -9.941022         -270.508975
                       2     0          2.000      -0.490185          -13.338601

                       1     1          2.000      -0.191647           -5.214984


 Total Electron Density at R=0:                                       116.283880
 Re-scaling the density matrix to get the right number of electrons
                  # Electrons              Trace(P)               Scaling factor
                           12                12.000                        1.000


 SCF WAVEFUNCTION OPTIMIZATION

  Step     Update method      Time    Convergence         Total energy    Change
  ------------------------------------------------------------------------------

  HFX_MEM_INFO| Est. max. program size before HFX [MiB]:                    2156
  HFX_MEM_INFO| Number of cart. primitive ERI's calculated:            674513758
  HFX_MEM_INFO| Number of sph. ERI's calculated:                         4860000
  HFX_MEM_INFO| Number of sph. ERI's stored in-core:                     4860000
  HFX_MEM_INFO| Number of sph. ERI's stored on disk:                           0
  HFX_MEM_INFO| Number of sph. ERI's calculated on the fly:                    0
  HFX_MEM_INFO| Total memory consumption ERI's RAM [MiB]:                     20
  HFX_MEM_INFO| Whereof max-vals [MiB]:                                        1
  HFX_MEM_INFO| Total compression factor ERI's RAM:                         1.87
  HFX_MEM_INFO| Total memory consumption ERI's disk [MiB]:                     0
  HFX_MEM_INFO| Total compression factor ERI's disk:                        0.00
  HFX_MEM_INFO| Size of density/Fock matrix [MiB]:                             0
  HFX_MEM_INFO| Size of buffers [MiB]:                                        13
  HFX_MEM_INFO| Est. max. program size after HFX  [MiB]:                    2694

     1 NoMix/Diag. 0.10E+00   18.8     1.31515393       -75.9310665379 -7.59E+01
     2 Broy./Diag. 0.10E+00    5.1     0.03786267       -75.1120750673  8.19E-01
     3 Broy./Diag. 0.10E+00    5.0     0.03612222       -74.7722713269  3.40E-01
     4 Broy./Diag. 0.10E+00    5.0     0.11297437       -75.1044644284 -3.32E-01
     5 Broy./Diag. 0.10E+00    5.1     0.03035415       -75.5941547410 -4.90E-01
     6 Broy./Diag. 0.10E+00    5.0     0.00543255       -75.6729189492 -7.88E-02
     7 Broy./Diag. 0.10E+00    5.1     0.00530417       -75.6657737796  7.15E-03
     8 Broy./Diag. 0.10E+00    5.2     0.00091954       -75.6769877144 -1.12E-02
     9 Broy./Diag. 0.10E+00    5.3     0.00183013       -75.6710913973  5.90E-03
    10 Broy./Diag. 0.10E+00    5.4     0.00300336       -75.6795459025 -8.45E-03
    11 Broy./Diag. 0.10E+00    5.4     0.00295092       -75.6968052718 -1.73E-02
    12 Broy./Diag. 0.10E+00    5.5     0.00332821       -75.7153868303 -1.86E-02
    13 Broy./Diag. 0.10E+00    5.6     0.00072513       -75.7284432109 -1.31E-02
    14 Broy./Diag. 0.10E+00    5.5     0.00205284       -75.7188822037  9.56E-03
    15 Broy./Diag. 0.10E+00    5.5     0.00034867       -75.7128604857  6.02E-03
    16 Broy./Diag. 0.10E+00    5.6     0.00027211       -75.7151758074 -2.32E-03
    17 Broy./Diag. 0.10E+00    5.5     0.00070564       -75.7169562185 -1.78E-03
    18 Broy./Diag. 0.10E+00    5.5     0.00105219       -75.7214948996 -4.54E-03
    19 Broy./Diag. 0.10E+00    5.4     0.00013553       -75.7250245881 -3.53E-03
    20 Broy./Diag. 0.10E+00    5.4     0.00020360       -75.7246290513  3.96E-04
    21 Broy./Diag. 0.10E+00    5.4     0.00009516       -75.7239210240  7.08E-04
    22 Broy./Diag. 0.10E+00    5.4     0.00044873       -75.7215842222  2.34E-03
    23 Broy./Diag. 0.10E+00    5.3     0.00014110       -75.7204773989  1.11E-03
    24 Broy./Diag. 0.10E+00    5.4     0.00023403       -75.7217864512 -1.31E-03
    25 Broy./Diag. 0.10E+00    5.4     0.00005883       -75.7224017083 -6.15E-04
    26 Broy./Diag. 0.10E+00    5.4     0.00005303       -75.7221282342  2.73E-04
    27 Broy./Diag. 0.10E+00    5.6     0.00008431       -75.7224064724 -2.78E-04
    28 Broy./Diag. 0.10E+00    5.5     0.00003197       -75.7227349632 -3.28E-04
    29 Broy./Diag. 0.10E+00    5.6     0.00006767       -75.7229907605 -2.56E-04
    30 Broy./Diag. 0.10E+00    5.5     0.00008337       -75.7230493123 -5.86E-05
    31 Broy./Diag. 0.10E+00    5.4     0.00014982       -75.7226397082  4.10E-04
    32 Broy./Diag. 0.10E+00    5.5     0.00006529       -75.7224393698  2.00E-04
    33 Broy./Diag. 0.10E+00    5.6     0.00005158       -75.7225991823 -1.60E-04
    34 Broy./Diag. 0.10E+00    5.5     0.00003622       -75.7225949112  4.27E-06
    35 Broy./Diag. 0.10E+00    5.5     0.00006477       -75.7224729345  1.22E-04
    36 Broy./Diag. 0.10E+00    5.5     0.00005221       -75.7223900527  8.29E-05
    37 Broy./Diag. 0.10E+00    5.4     0.00003994       -75.7223848443  5.21E-06
    38 Broy./Diag. 0.10E+00    5.4     0.00002996       -75.7223827345  2.11E-06
    39 Broy./Diag. 0.10E+00    5.4     0.00003942       -75.7224275504 -4.48E-05
    40 Broy./Diag. 0.10E+00    5.3     0.00003525       -75.7224577975 -3.02E-05
    41 Broy./Diag. 0.10E+00    5.4     0.00004682       -75.7224652268 -7.43E-06
    42 Broy./Diag. 0.10E+00    5.4     0.00003230       -75.7224360955  2.91E-05
    43 Broy./Diag. 0.10E+00    5.5     0.00002851       -75.7223973655  3.87E-05
    44 Broy./Diag. 0.10E+00    5.6     0.00003221       -75.7223688761  2.85E-05
    45 Broy./Diag. 0.10E+00    5.5     0.00003678       -75.7224110116 -4.21E-05
    46 Broy./Diag. 0.10E+00    5.6     0.00003115       -75.7224746591 -6.36E-05
    47 Broy./Diag. 0.10E+00    5.5     0.00003099       -75.7224318384  4.28E-05
    48 Broy./Diag. 0.10E+00    5.4     0.00002772       -75.7224038860  2.80E-05
    49 Broy./Diag. 0.10E+00    5.4     0.00004418       -75.7225237449 -1.20E-04
    50 Broy./Diag. 0.10E+00    5.4     0.00004822       -75.7225831266 -5.94E-05
    51 Broy./Diag. 0.10E+00    5.4     0.00005572       -75.7225472993  3.58E-05
    52 Broy./Diag. 0.10E+00    5.4     0.00005440       -75.7225209694  2.63E-05
    53 Broy./Diag. 0.10E+00    5.4     0.00005144       -75.7225177037  3.27E-06
    54 Broy./Diag. 0.10E+00    5.3     0.00005728       -75.7225064109  1.13E-05
    55 Broy./Diag. 0.10E+00    5.4     0.00005724       -75.7224994895  6.92E-06
    56 Broy./Diag. 0.10E+00    5.3     0.00004895       -75.7224995465 -5.70E-08
    57 Broy./Diag. 0.10E+00    5.4     0.00005117       -75.7225036644 -4.12E-06
    58 Broy./Diag. 0.10E+00    5.5     0.00005109       -75.7225161660 -1.25E-05
    59 Broy./Diag. 0.10E+00    5.5     0.00004673       -75.7225234405 -7.27E-06
    60 Broy./Diag. 0.10E+00    5.6     0.00005183       -75.7225214539  1.99E-06
    61 Broy./Diag. 0.10E+00    5.5     0.00004736       -75.7225288566 -7.40E-06
    62 Broy./Diag. 0.10E+00    5.5     0.00004427       -75.7225293622 -5.06E-07
    63 Broy./Diag. 0.10E+00    5.5     0.00004722       -75.7225253193  4.04E-06
    64 Broy./Diag. 0.10E+00    5.5     0.00004174       -75.7225368096 -1.15E-05
    65 Broy./Diag. 0.10E+00    5.5     0.00003143       -75.7225354533  1.36E-06
    66 Broy./Diag. 0.10E+00    5.5     0.00003323       -75.7225235635  1.19E-05
    67 Broy./Diag. 0.10E+00    5.4     0.00003379       -75.7225360139 -1.25E-05
    68 Broy./Diag. 0.10E+00    5.4     0.00003571       -75.7225607294 -2.47E-05
    69 Broy./Diag. 0.10E+00    5.4     0.00004228       -75.7225709567 -1.02E-05
    70 Broy./Diag. 0.10E+00    5.4     0.00003223       -75.7225816044 -1.06E-05
    71 Broy./Diag. 0.10E+00    5.4     0.00002754       -75.7225835731 -1.97E-06
    72 Broy./Diag. 0.10E+00    5.4     0.00003282       -75.7225860514 -2.48E-06
    73 Broy./Diag. 0.10E+00    5.5     0.00002743       -75.7226037880 -1.77E-05
    74 Broy./Diag. 0.10E+00    5.7     0.00001620       -75.7225444675  5.93E-05
    75 Broy./Diag. 0.10E+00    5.5     0.00002360       -75.7224714669  7.30E-05
    76 Broy./Diag. 0.10E+00    5.6     0.00002541       -75.7224618977  9.57E-06
    77 Broy./Diag. 0.10E+00    5.7     0.00003534       -75.7224584365  3.46E-06
    78 Broy./Diag. 0.10E+00    5.5     0.00019263       -75.7224064848  5.20E-05
    79 Broy./Diag. 0.10E+00    5.5     0.00007737       -75.7225249990 -1.19E-04
    80 Broy./Diag. 0.10E+00    5.4     0.00009897       -75.7224345862  9.04E-05
    81 Broy./Diag. 0.10E+00    5.5     0.00026619       -75.7223757033  5.89E-05
    82 Broy./Diag. 0.10E+00    5.4     0.00030778       -75.7222514313  1.24E-04
    83 Broy./Diag. 0.10E+00    5.4     0.00021721       -75.7223276317 -7.62E-05
    84 Broy./Diag. 0.10E+00    5.4     0.00018170       -75.7224649649 -1.37E-04
    85 Broy./Diag. 0.10E+00    5.5     0.00008454       -75.7222809083  1.84E-04
    86 Broy./Diag. 0.10E+00    5.3     0.00011078       -75.7223342644 -5.34E-05
    87 Broy./Diag. 0.10E+00    5.4     0.00013841       -75.7223717856 -3.75E-05
    88 Broy./Diag. 0.10E+00    5.7     0.00017633       -75.7222731258  9.87E-05
    89 Broy./Diag. 0.10E+00    5.6     0.00020282       -75.7223074977 -3.44E-05
    90 Broy./Diag. 0.10E+00    5.6     0.00026634       -75.7223639512 -5.65E-05
    91 Broy./Diag. 0.10E+00    5.5     0.00033415       -75.7223336420  3.03E-05
    92 Broy./Diag. 0.10E+00    5.5     0.00042153       -75.7223928011 -5.92E-05
    93 Broy./Diag. 0.10E+00    5.5     0.00052864       -75.7223628087  3.00E-05
    94 Broy./Diag. 0.10E+00    5.6     0.00066316       -75.7224151535 -5.23E-05
    95 Broy./Diag. 0.10E+00    5.5     0.00083317       -75.7223891136  2.60E-05
    96 Broy./Diag. 0.10E+00    5.5     0.00104775       -75.7223676365  2.15E-05
    97 Broy./Diag. 0.10E+00    5.5     0.00131594       -75.7223448461  2.28E-05
    98 Broy./Diag. 0.10E+00    5.5     0.00164641       -75.7222801026  6.47E-05
    99 Broy./Diag. 0.10E+00    5.4     0.00208160       -75.7222544279  2.57E-05
   100 Broy./Diag. 0.10E+00    5.4     0.00262014       -75.7221668026  8.76E-05
   101 Broy./Diag. 0.10E+00    5.4     0.00329681       -75.7220686934  9.81E-05
   102 Broy./Diag. 0.10E+00    5.5     0.00413604       -75.7218261294  2.43E-04
   103 Broy./Diag. 0.10E+00    5.5     0.00518125       -75.7216574085  1.69E-04
   104 Broy./Diag. 0.10E+00    5.5     0.00648847       -75.7211870636  4.70E-04
   105 Broy./Diag. 0.10E+00    5.5     0.00810623       -75.7204356639  7.51E-04
   106 Broy./Diag. 0.10E+00    5.5     0.01008487       -75.7192528290  1.18E-03
   107 Broy./Diag. 0.10E+00    5.5     0.01246026       -75.7172960396  1.96E-03
   108 Broy./Diag. 0.10E+00    5.4     0.01530620       -75.7144429741  2.85E-03
   109 Broy./Diag. 0.10E+00    5.4     0.01852491       -75.7099351200  4.51E-03
   110 Broy./Diag. 0.10E+00    5.4     0.02192518       -75.7030797300  6.86E-03
   111 Broy./Diag. 0.10E+00    5.5     0.02505612       -75.6924921471  1.06E-02
   112 Broy./Diag. 0.10E+00    5.7     0.03261393       -75.6773080101  1.52E-02
   113 Broy./Diag. 0.10E+00    5.6     0.04458966       -75.6551628516  2.21E-02
   114 Broy./Diag. 0.10E+00    5.5     0.05726471       -75.6248783334  3.03E-02
   115 Broy./Diag. 0.10E+00    5.5     0.06803892       -75.5858573604  3.90E-02
   116 Broy./Diag. 0.10E+00    5.4     0.07409061       -75.5390031925  4.69E-02
   117 Broy./Diag. 0.10E+00    5.4     0.07369238       -75.4880504167  5.10E-02
   118 Broy./Diag. 0.10E+00    5.4     0.06702834       -75.4374129217  5.06E-02
   119 Broy./Diag. 0.10E+00    5.6     0.05631298       -75.3913149756  4.61E-02
   120 Broy./Diag. 0.10E+00    5.6     0.04446356       -75.3519800812  3.93E-02
   121 Broy./Diag. 0.10E+00    5.6     0.03310599       -75.3218428409  3.01E-02
   122 Broy./Diag. 0.10E+00    5.5     0.02430653       -75.3007107598  2.11E-02
   123 Broy./Diag. 0.10E+00    5.5     0.01987174       -75.2903676465  1.03E-02
   124 Broy./Diag. 0.10E+00    5.5     0.01732845       -75.2808295622  9.54E-03
   125 Broy./Diag. 0.10E+00    5.5     0.01588411       -75.2729561665  7.87E-03
   126 Broy./Diag. 0.10E+00    5.4     0.01356086       -75.2768635392 -3.91E-03
   127 Broy./Diag. 0.10E+00    5.4     0.01281761       -75.2910242384 -1.42E-02
   128 Broy./Diag. 0.10E+00    5.5     0.01363365       -75.3226412118 -3.16E-02
   129 Broy./Diag. 0.10E+00    5.6     0.02050417       -75.3528198417 -3.02E-02

 *** WARNING in pw/ps_wavelet_methods.F:238 :: Density non-zero on the ***
 *** edges of the unit cell: wrong results in WAVELET solver           ***

   130 Broy./Diag. 0.10E+00    5.5     0.05889621       -75.5066463579 -1.54E-01

 *** WARNING in pw/ps_wavelet_methods.F:238 :: Density non-zero on the ***
 *** edges of the unit cell: wrong results in WAVELET solver           ***

   131 Broy./Diag. 0.10E+00    5.4     0.09534940       -75.6652981278 -1.59E-01
   132 Broy./Diag. 0.10E+00    5.4     0.07010891       -75.6136083130  5.17E-02
   133 Broy./Diag. 0.10E+00    5.6     0.07198617       -75.6285730037 -1.50E-02
   134 Broy./Diag. 0.10E+00    5.6     0.06155924       -75.5166163719  1.12E-01
   135 Broy./Diag. 0.10E+00    5.6     0.08904241       -75.6876621013 -1.71E-01
   136 Broy./Diag. 0.10E+00    5.5     0.03713746       -75.5705704227  1.17E-01

 *** WARNING in pw/ps_wavelet_methods.F:238 :: Density non-zero on the ***
 *** edges of the unit cell: wrong results in WAVELET solver           ***

   137 Broy./Diag. 0.10E+00    5.5     0.04150455       -75.4856890084  8.49E-02

 *** WARNING in pw/ps_wavelet_methods.F:238 :: Density non-zero on the ***
[...]
   424 Broy./Diag. 0.10E+00    5.4     0.02155872       -75.6960340421 -1.86E-03
   425 Broy./Diag. 0.10E+00    5.5     0.01332847       -75.7016012579 -5.57E-03
   426 Broy./Diag. 0.10E+00    5.4     0.01666201       -75.7160903266 -1.45E-02
   427 Broy./Diag. 0.10E+00    5.4     0.02549667       -75.7339351717 -1.78E-02
   428 Broy./Diag. 0.10E+00    5.5     0.02141048       -75.7081936259  2.57E-02
   429 Broy./Diag. 0.10E+00    5.5     0.01744985       -75.6962559716  1.19E-02
   430 Broy./Diag. 0.10E+00    5.6     0.01773782       -75.6879408428  8.32E-03
   431 Broy./Diag. 0.10E+00    5.5     0.01631636       -75.6790782298  8.86E-03
   432 Broy./Diag. 0.10E+00    5.5     0.01116036       -75.6663986182  1.27E-02
   433 Broy./Diag. 0.10E+00    5.6     0.00465852       -75.6604679721  5.93E-03
   434 Broy./Diag. 0.10E+00    5.7     0.04218132       -75.6681516727 -7.68E-03
   435 Broy./Diag. 0.10E+00    5.5     0.05851377       -75.6817491987 -1.36E-02
   436 Broy./Diag. 0.10E+00    5.5     0.03799422       -75.6898508796 -8.10E-03
   437 Broy./Diag. 0.10E+00    5.4     0.01028252       -75.6976789880 -7.83E-03
   438 Broy./Diag. 0.10E+00    5.4     0.01466146       -75.7130671175 -1.54E-02
   439 Broy./Diag. 0.10E+00    5.4     0.02033470       -75.7199997045 -6.93E-03
   440 Broy./Diag. 0.10E+00    5.4     0.02249411       -75.7222917051 -2.29E-03
   441 Broy./Diag. 0.10E+00    5.4     0.02305345       -75.7199057364  2.39E-03
   442 Broy./Diag. 0.10E+00    5.5     0.02746234       -75.7148035661  5.10E-03
   443 Broy./Diag. 0.10E+00    5.6     0.03313226       -75.7089970155  5.81E-03
   444 Broy./Diag. 0.10E+00    5.5     0.03720557       -75.6991135892  9.88E-03
   445 Broy./Diag. 0.10E+00    5.5     0.04328899       -75.6888178494  1.03E-02
   446 Broy./Diag. 0.10E+00    5.5     0.06727970       -75.6691899814  1.96E-02
   447 Broy./Diag. 0.10E+00    5.5     0.07723062       -75.6387128049  3.05E-02
   448 Broy./Diag. 0.10E+00    5.4     0.08099636       -75.6000515111  3.87E-02
   449 Broy./Diag. 0.10E+00    5.5     0.08078862       -75.5512050406  4.88E-02
   450 Broy./Diag. 0.10E+00    5.4     0.07993551       -75.5052688443  4.59E-02
   451 Broy./Diag. 0.10E+00    5.5     0.06842378       -75.4564731097  4.88E-02
   452 Broy./Diag. 0.10E+00    5.5     0.06285315       -75.4144178933  4.21E-02
   453 Broy./Diag. 0.10E+00    5.5     0.07023683       -75.3833408232  3.11E-02
   454 Broy./Diag. 0.10E+00    5.5     0.07714043       -75.3787914976  4.55E-03
   455 Broy./Diag. 0.10E+00    5.5     0.03257833       -75.3354766387  4.33E-02
   456 Broy./Diag. 0.10E+00    5.4     0.01352685       -75.3097879480  2.57E-02
   457 Broy./Diag. 0.10E+00    5.6     0.01735937       -75.3058387880  3.95E-03
   458 Broy./Diag. 0.10E+00    5.5     0.03528916       -75.2936444129  1.22E-02
   459 Broy./Diag. 0.10E+00    5.6     0.07043441       -75.2509118533  4.27E-02
   460 Broy./Diag. 0.10E+00    5.6     0.06891631       -75.2211747301  2.97E-02
   461 Broy./Diag. 0.10E+00    5.5     0.08910162       -75.3430818957 -1.22E-01
   462 Broy./Diag. 0.10E+00    5.5     0.06893552       -75.3288693222  1.42E-02
   463 Broy./Diag. 0.10E+00    5.5     0.12601256       -75.4213806103 -9.25E-02
   464 Broy./Diag. 0.10E+00    5.4     0.14803688       -75.5537406833 -1.32E-01

 *** WARNING in pw/ps_wavelet_methods.F:238 :: Density non-zero on the ***
 *** edges of the unit cell: wrong results in WAVELET solver           ***

   465 Broy./Diag. 0.10E+00    5.5     0.27606536       -75.5536462870  9.44E-05

 *** WARNING in pw/ps_wavelet_methods.F:238 :: Density non-zero on the ***
 *** edges of the unit cell: wrong results in WAVELET solver           ***

   466 Broy./Diag. 0.10E+00    5.4     0.13259178       -75.6465057466 -9.29E-02

 *** WARNING in pw/ps_wavelet_methods.F:238 :: Density non-zero on the ***
 *** edges of the unit cell: wrong results in WAVELET solver           ***

   467 Broy./Diag. 0.10E+00    5.4     0.10615759       -75.6741453029 -2.76E-02
   468 Broy./Diag. 0.10E+00    5.6     0.09596883       -75.6759897562 -1.84E-03
   469 Broy./Diag. 0.10E+00    5.5     0.09548368       -75.7133288904 -3.73E-02
   470 Broy./Diag. 0.10E+00    5.5     0.08660671       -75.7778279159 -6.45E-02
   471 Broy./Diag. 0.10E+00    5.5     0.07115113       -75.7883141397 -1.05E-02
   472 Broy./Diag. 0.10E+00    5.4     0.05380506       -75.8087658297 -2.05E-02
   473 Broy./Diag. 0.10E+00    5.5     0.06372739       -75.7688276203  3.99E-02
   474 Broy./Diag. 0.10E+00    5.6     0.05324954       -75.7068514946  6.20E-02
   475 Broy./Diag. 0.10E+00    5.6     0.03550118       -75.6856191767  2.12E-02
   476 Broy./Diag. 0.10E+00    5.5     0.03869343       -75.6479927569  3.76E-02
   477 Broy./Diag. 0.10E+00    5.4     0.03938809       -75.6199834598  2.80E-02
   478 Broy./Diag. 0.10E+00    5.4     0.01488736       -75.6282855553 -8.30E-03
   479 Broy./Diag. 0.10E+00    5.4     0.01372928       -75.6342066972 -5.92E-03
   480 Broy./Diag. 0.10E+00    5.4     0.02911630       -75.6926232421 -5.84E-02
   481 Broy./Diag. 0.10E+00    5.5     0.04423866       -75.7776295416 -8.50E-02
   482 Broy./Diag. 0.10E+00    5.5     0.05632470       -75.8361932283 -5.86E-02
   483 Broy./Diag. 0.10E+00    5.4     0.09525430       -75.9082500181 -7.21E-02
   484 Broy./Diag. 0.10E+00    5.5     0.04750866       -75.9213113030 -1.31E-02
   485 Broy./Diag. 0.10E+00    5.5     0.02507248       -75.8593807362  6.19E-02
   486 Broy./Diag. 0.10E+00    5.5     0.03077346       -75.7812907713  7.81E-02
   487 Broy./Diag. 0.10E+00    5.4     0.04765801       -75.7723391762  8.95E-03
   488 Broy./Diag. 0.10E+00    5.5     0.04435085       -75.7908990104 -1.86E-02
   489 Broy./Diag. 0.10E+00    5.5     0.02921467       -75.8084142588 -1.75E-02
   490 Broy./Diag. 0.10E+00    5.6     0.03931040       -75.7591603698  4.93E-02
   491 Broy./Diag. 0.10E+00    5.6     0.05969448       -75.7468758566  1.23E-02
   492 Broy./Diag. 0.10E+00    5.5     0.04536502       -75.7523020987 -5.43E-03
   493 Broy./Diag. 0.10E+00    5.5     0.02858506       -75.7523347450 -3.26E-05
   494 Broy./Diag. 0.10E+00    5.4     0.03650260       -75.7332136227  1.91E-02
   495 Broy./Diag. 0.10E+00    5.4     0.03014690       -75.7198487208  1.34E-02
   496 Broy./Diag. 0.10E+00    5.4     0.02898644       -75.7040374557  1.58E-02
   497 Broy./Diag. 0.10E+00    5.6     0.02793251       -75.6989425573  5.09E-03
   498 Broy./Diag. 0.10E+00    5.6     0.06442389       -75.6904392395  8.50E-03
   499 Broy./Diag. 0.10E+00    5.5     0.05503363       -75.6544076125  3.60E-02
   500 Broy./Diag. 0.10E+00    5.5     0.07797253       -75.6512683472  3.14E-03

  Leaving inner SCF loop after reaching   500 steps.


  Electronic density on regular grids:         -8.6178003012        3.3821996988
  Core density on regular grids:               12.0000000000        0.0000000000
  Hard and soft densities (Lebedev):          -48.5796527294      -45.1996752824
  Total Rho_soft + Rho1_hard - Rho1_soft      -11.9977777482
  Total charge density (r-space):               0.0022222518
  Total Rho_soft + Rho0_soft (g-space):         0.0022221099

  Overlap energy of the core charge distribution:               0.00003125550742
  Self energy of the core charge distribution:                -58.22549323810243
  Core Hamiltonian energy:                                    -15.10824751427741
  Hartree energy:                                              16.64812989123098
  Exchange-correlation energy:                                 -2.79861976121369
  Hartree-Fock Exchange energy:                                -2.52493159322043

  GAPW| Exc from hard and soft atomic rho1:                    -5.14671996058256
  GAPW| local Eh = 1 center integrals:                         -8.49541742650246

  Total energy:                                               -75.65126834716057

 *******************************************************************************
 *   ___                                                                       *
 *  /   \                                                                      *
 * [ABORT]                                                                     *
 *  \___/     SCF run NOT converged. To continue the calculation regardless,   *
 *    |             please set the keyword IGNORE_CONVERGENCE_FAILURE.         *
 *  O/|                                                                        *
 * /| |                                                                        *
 * / \                                                            qs_scf.F:611 *
 *******************************************************************************


 ===== Routine Calling Stack ===== 

            3 scf_env_do_scf
            2 qs_energies
            1 CP2K

 *******************************************************************************
 *   ___                                                                       *
 *  /   \                                                                      *
 * [ABORT]                                                                     *
 *  \___/     SCF run NOT converged. To continue the calculation regardless,   *
 *    |             please set the keyword IGNORE_CONVERGENCE_FAILURE.         *
 *  O/|                                                                        *
 * /| |                                                                        *
 * / \                                                            qs_scf.F:611 *
 *******************************************************************************


 ===== Routine Calling Stack ===== 

            3 scf_env_do_scf
            2 qs_energies
            1 CP2K

 *******************************************************************************
 *   ___                                                                       *
 *  /   \                                                                      *
 * [ABORT]                                                                     *
 *  \___/     SCF run NOT converged. To continue the calculation regardless,   *
 *    |             please set the keyword IGNORE_CONVERGENCE_FAILURE.         *
 *  O/|                                                                        *
 * /| |                                                                        *
 * / \                                                            qs_scf.F:611 *
 *******************************************************************************


 ===== Routine Calling Stack ===== 

            3 scf_env_do_scf
            2 qs_energies
            1 CP2K

 *******************************************************************************
 *   ___                                                                       *
 *  /   \                                                                      *
 * [ABORT]                                                                     *
 *  \___/     SCF run NOT converged. To continue the calculation regardless,   *
 *    |             please set the keyword IGNORE_CONVERGENCE_FAILURE.         *
 *  O/|                                                                        *
 * /| |                                                                        *
 * / \                                                            qs_scf.F:611 *
 *******************************************************************************


 ===== Routine Calling Stack ===== 

            3 scf_env_do_scf
            2 qs_energies
            1 CP2K

 *******************************************************************************
 *   ___                                                                       *
 *  /   \                                                                      *
 * [ABORT]                                                                     *
 *  \___/     SCF run NOT converged. To continue the calculation regardless,   *
 *    |             please set the keyword IGNORE_CONVERGENCE_FAILURE.         *
 *  O/|                                                                        *
 * /| |                                                                        *
 * / \                                                            qs_scf.F:611 *
 *******************************************************************************


 ===== Routine Calling Stack ===== 

            3 scf_env_do_scf
            2 qs_energies
            1 CP2K

 *******************************************************************************
 *   ___                                                                       *
 *  /   \                                                                      *
 * [ABORT]                                                                     *
 *  \___/     SCF run NOT converged. To continue the calculation regardless,   *
 *    |             please set the keyword IGNORE_CONVERGENCE_FAILURE.         *
 *  O/|                                                                        *
 * /| |                                                                        *
 * / \                                                            qs_scf.F:611 *
 *******************************************************************************


 ===== Routine Calling Stack ===== 

            3 scf_env_do_scf
            2 qs_energies
            1 CP2K

 *******************************************************************************
 *   ___                                                                       *
 *  /   \                                                                      *
 * [ABORT]                                                                     *
 *  \___/     SCF run NOT converged. To continue the calculation regardless,   *
 *    |             please set the keyword IGNORE_CONVERGENCE_FAILURE.         *
 *  O/|                                                                        *
 * /| |                                                                        *
 * / \                                                            qs_scf.F:611 *
 *******************************************************************************


 ===== Routine Calling Stack ===== 

            3 scf_env_do_scf
            2 qs_energies
            1 CP2K

 *******************************************************************************
 *   ___                                                                       *
 *  /   \                                                                      *
 * [ABORT]                                                                     *
 *  \___/     SCF run NOT converged. To continue the calculation regardless,   *
 *    |             please set the keyword IGNORE_CONVERGENCE_FAILURE.         *
 *  O/|                                                                        *
 * /| |                                                                        *
 * / \                                                            qs_scf.F:611 *
 *******************************************************************************


 ===== Routine Calling Stack ===== 

            3 scf_env_do_scf
            2 qs_energies
            1 CP2K

 *******************************************************************************
 *   ___                                                                       *
 *  /   \                                                                      *
 * [ABORT]                                                                     *
 *  \___/     SCF run NOT converged. To continue the calculation regardless,   *
 *    |             please set the keyword IGNORE_CONVERGENCE_FAILURE.         *
 *  O/|                                                                        *
 * /| |                                                                        *
 * / \                                                            qs_scf.F:611 *
 *******************************************************************************


 ===== Routine Calling Stack ===== 

            3 scf_env_do_scf
            2 qs_energies
            1 CP2K

 *******************************************************************************
 *   ___                                                                       *
 *  /   \                                                                      *
 * [ABORT]                                                                     *
 *  \___/     SCF run NOT converged. To continue the calculation regardless,   *
 *    |             please set the keyword IGNORE_CONVERGENCE_FAILURE.         *
 *  O/|                                                                        *
 * /| |                                                                        *
 * / \                                                            qs_scf.F:611 *
 *******************************************************************************


 ===== Routine Calling Stack ===== 

            3 scf_env_do_scf
            2 qs_energies
            1 CP2K

 *******************************************************************************
 *   ___                                                                       *
 *  /   \                                                                      *
 * [ABORT]                                                                     *
 *  \___/     SCF run NOT converged. To continue the calculation regardless,   *
 *    |             please set the keyword IGNORE_CONVERGENCE_FAILURE.         *
 *  O/|                                                                        *
 * /| |                                                                        *
 * / \                                                            qs_scf.F:611 *
 *******************************************************************************


 ===== Routine Calling Stack ===== 

            3 scf_env_do_scf
            2 qs_energies
            1 CP2K

 *******************************************************************************
 *   ___                                                                       *
 *  /   \                                                                      *
 * [ABORT]                                                                     *
 *  \___/     SCF run NOT converged. To continue the calculation regardless,   *
 *    |             please set the keyword IGNORE_CONVERGENCE_FAILURE.         *
 *  O/|                                                                        *
 * /| |                                                                        *
 * / \                                                            qs_scf.F:611 *
 *******************************************************************************


 ===== Routine Calling Stack ===== 

            3 scf_env_do_scf
            2 qs_energies
            1 CP2K

 *******************************************************************************
 *   ___                                                                       *
 *  /   \                                                                      *
 * [ABORT]                                                                     *
 *  \___/     SCF run NOT converged. To continue the calculation regardless,   *
 *    |             please set the keyword IGNORE_CONVERGENCE_FAILURE.         *
 *  O/|                                                                        *
 * /| |                                                                        *
 * / \                                                            qs_scf.F:611 *
 *******************************************************************************


 ===== Routine Calling Stack ===== 

            3 scf_env_do_scf
            2 qs_energies
            1 CP2K
