 DBCSR| CPU Multiplication driver                                           BLAS (U)
 DBCSR| Multrec recursion limit                                              512 (U)
 DBCSR| Multiplication stack size                                           1000 (D)
 DBCSR| Maximum elements for images                                    UNLIMITED (U)
 DBCSR| Multiplicative factor virtual images                                   1 (U)
 DBCSR| Use multiplication densification                                       T (D)
 DBCSR| Multiplication size stacks                                             3 (U)
 DBCSR| Use memory pool for CPU allocation                                     F (U)
 DBCSR| Number of 3D layers                                               SINGLE (U)
 DBCSR| Use MPI memory allocation                                              F (U)
 DBCSR| Use RMA algorithm                                                      F (U)
 DBCSR| Use Communication thread                                               T (U)
 DBCSR| Communication thread load                                             75 (D)
 DBCSR| MPI: My process id                                                     0
 DBCSR| MPI: Number of processes                                              24
 DBCSR| OMP: Current number of threads                                         4
 DBCSR| OMP: Max number of threads                                             4
 DBCSR| Split modifier for TAS multiplication algorithm                  1.0E+00 (U)


  **** **** ******  **  PROGRAM STARTED AT               2025-03-03 00:18:10.552
 ***** ** ***  *** **   PROGRAM STARTED ON                          i02r02c03s09
 **    ****   ******    PROGRAM STARTED BY                               di38fab
 ***** **    ** ** **   PROGRAM PROCESS ID                                600304
  **** **  *******  **  PROGRAM STARTED IN /hppfs/scratch/04/di38fab/05_MOL/W4-1
                                           1+ALK/c2/DZVP

 CP2K| version string:                 CP2K version 2025.1 (Development Version)
 CP2K| source code revision number:                                  git:47877ba
 CP2K| cp2kflags: omp libint fftw3 libxc parallel scalapack max_contr=4         
 CP2K| is freely available from                            https://www.cp2k.org/
 CP2K| Program compiled at                          Thu Feb 20 16:00:34 CET 2025
 CP2K| Program compiled on                                               login04
 CP2K| Program compiled for                                        Supermuc-foss
 CP2K| Data directory path          /hppfs/work/pn36zo/di38fab/newcp2k/cp2k/data
 CP2K| Input file name                                                    GW.inp

 GLOBAL| Force Environment number                                              1
 GLOBAL| Basis set file name            /hppfs/scratch/04/di38fab/04_TMD/BASIS_A
 GLOBAL| Potential file name            /hppfs/work/pn36zo/di38fab/cp2k/data/ALL
 GLOBAL| MM Potential file name                                     MM_POTENTIAL
 GLOBAL| Coordinate file name                                      __STD_INPUT__
 GLOBAL| Method name                                                        CP2K
 GLOBAL| Project name                                                       MoS2
 GLOBAL| Run type                                                         ENERGY
 GLOBAL| FFT library                                                       FFTW3
 GLOBAL| Diagonalization library                                       ScaLAPACK
 GLOBAL| DGEMM library                                                      BLAS
 GLOBAL| Orthonormality check for eigenvectors                          DISABLED
 GLOBAL| Matrix multiplication library                                 ScaLAPACK
 GLOBAL| All-to-all communication in single precision                          F
 GLOBAL| FFTs using library dependent lengths                                  F
 GLOBAL| Grid backend                                                       AUTO
 GLOBAL| Global print level                                               MEDIUM
 GLOBAL| MPI I/O enabled                                                       T
 GLOBAL| Total number of message passing processes                            24
 GLOBAL| Number of threads for this process                                    4
 GLOBAL| This output is from process                                           0
 GLOBAL| OpenMP stack size per thread (OMP_STACKSIZE)                    default
 GLOBAL| CPU model name             Intel(R) Xeon(R) Platinum 8174 CPU @ 3.10GHz

 MEMORY| system memory details [Kb]
 MEMORY|                        rank 0           min           max       average
 MEMORY| MemTotal             98436708      98436708      98436708      98436708
 MEMORY| MemFree              84323672      83974584      84323672      84149128
 MEMORY| Buffers                     0             0             0             0
 MEMORY| Cached                2432868       2432868       2440084       2436476
 MEMORY| Slab                  1208568       1208568       1234492       1221530
 MEMORY| SReclaimable           263804        263804        275892        269848
 MEMORY| MemLikelyFree        87020344      86690560      87020344      86855452


 *** Fundamental physical constants (SI units) ***

 *** Literature: B. J. Mohr and B. N. Taylor,
 ***             CODATA recommended values of the fundamental physical
 ***             constants: 2006, Web Version 5.1
 ***             http://physics.nist.gov/constants

 Speed of light in vacuum [m/s]                             2.99792458000000E+08
 Magnetic constant or permeability of vacuum [N/A**2]       1.25663706143592E-06
 Electric constant or permittivity of vacuum [F/m]          8.85418781762039E-12
 Planck constant (h) [J*s]                                  6.62606896000000E-34
 Planck constant (h-bar) [J*s]                              1.05457162825177E-34
 Elementary charge [C]                                      1.60217648700000E-19
 Electron mass [kg]                                         9.10938215000000E-31
 Electron g factor [ ]                                     -2.00231930436220E+00
 Proton mass [kg]                                           1.67262163700000E-27
 Fine-structure constant                                    7.29735253760000E-03
 Rydberg constant [1/m]                                     1.09737315685270E+07
 Avogadro constant [1/mol]                                  6.02214179000000E+23
 Boltzmann constant [J/K]                                   1.38065040000000E-23
 Atomic mass unit [kg]                                      1.66053878200000E-27
 Bohr radius [m]                                            5.29177208590000E-11

 *** Conversion factors ***

 [u] -> [a.u.]                                              1.82288848426455E+03
 [Angstrom] -> [Bohr] = [a.u.]                              1.88972613288564E+00
 [a.u.] = [Bohr] -> [Angstrom]                              5.29177208590000E-01
 [a.u.] -> [s]                                              2.41888432650478E-17
 [a.u.] -> [fs]                                             2.41888432650478E-02
 [a.u.] -> [J]                                              4.35974393937059E-18
 [a.u.] -> [N]                                              8.23872205491840E-08
 [a.u.] -> [K]                                              3.15774647902944E+05
 [a.u.] -> [kJ/mol]                                         2.62549961709828E+03
 [a.u.] -> [kcal/mol]                                       6.27509468713739E+02
 [a.u.] -> [Pa]                                             2.94210107994716E+13
 [a.u.] -> [bar]                                            2.94210107994716E+08
 [a.u.] -> [atm]                                            2.90362800883016E+08
 [a.u.] -> [eV]                                             2.72113838565563E+01
 [a.u.] -> [Hz]                                             6.57968392072181E+15
 [a.u.] -> [1/cm] (wave numbers)                            2.19474631370540E+05
 [a.u./Bohr**2] -> [1/cm]                                   5.14048714338585E+03
 

 CELL_TOP| Volume [angstrom^3]:                                     27000.000000
 CELL_TOP| Vector a [angstrom    30.000     0.000     0.000   |a| =    30.000000
 CELL_TOP| Vector b [angstrom     0.000    30.000     0.000   |b| =    30.000000
 CELL_TOP| Vector c [angstrom     0.000     0.000    30.000   |c| =    30.000000
 CELL_TOP| Angle (b,c), alpha [degree]:                                90.000000
 CELL_TOP| Angle (a,c), beta  [degree]:                                90.000000
 CELL_TOP| Angle (a,b), gamma [degree]:                                90.000000
 CELL_TOP| Numerically orthorhombic:                                         YES
 CELL_TOP| Periodicity                                                      NONE

 GENERATE|  Preliminary Number of Bonds generated:                             0
 GENERATE|  Achieved consistency in connectivity generation.

 CELL| Volume [angstrom^3]:                                         27000.000000
 CELL| Vector a [angstrom]:      30.000     0.000     0.000   |a| =    30.000000
 CELL| Vector b [angstrom]:       0.000    30.000     0.000   |b| =    30.000000
 CELL| Vector c [angstrom]:       0.000     0.000    30.000   |c| =    30.000000
 CELL| Angle (b,c), alpha [degree]:                                    90.000000
 CELL| Angle (a,c), beta  [degree]:                                    90.000000
 CELL| Angle (a,b), gamma [degree]:                                    90.000000
 CELL| Numerically orthorhombic:                                             YES
 CELL| Periodicity                                                          NONE

 CELL_REF| Volume [angstrom^3]:                                     27000.000000
 CELL_REF| Vector a [angstrom    30.000     0.000     0.000   |a| =    30.000000
 CELL_REF| Vector b [angstrom     0.000    30.000     0.000   |b| =    30.000000
 CELL_REF| Vector c [angstrom     0.000     0.000    30.000   |c| =    30.000000
 CELL_REF| Angle (b,c), alpha [degree]:                                90.000000
 CELL_REF| Angle (a,c), beta  [degree]:                                90.000000
 CELL_REF| Angle (a,b), gamma [degree]:                                90.000000
 CELL_REF| Numerically orthorhombic:                                         YES
 CELL_REF| Periodicity                                                      NONE

 *******************************************************************************
 *******************************************************************************
 **                                                                           **
 **     #####                         ##              ##                      **
 **    ##   ##            ##          ##              ##                      **
 **   ##     ##                       ##            ######                    **
 **   ##     ##  ##   ##  ##   #####  ##  ##   ####   ##    #####    #####    **
 **   ##     ##  ##   ##  ##  ##      ## ##   ##      ##   ##   ##  ##   ##   **
 **   ##  ## ##  ##   ##  ##  ##      ####     ###    ##   ######   ######    **
 **    ##  ###   ##   ##  ##  ##      ## ##      ##   ##   ##       ##        **
 **     #######   #####   ##   #####  ##  ##  ####    ##    #####   ##        **
 **           ##                                                    ##        **
 **                                                                           **
 **                                                ... make the atoms dance   **
 **                                                                           **
 **            Copyright (C) by CP2K developers group (2000-2025)             **
 **                      J. Chem. Phys. 152, 194103 (2020)                    **
 **                                                                           **
 *******************************************************************************

 DFT| Spin restricted Kohn-Sham (RKS) calculation                            RKS
 DFT| Multiplicity                                                             1
 DFT| Number of spin states                                                    1
 DFT| Charge                                                                   0
 DFT| Self-interaction correction (SIC)                                       NO
 DFT| Cutoffs: density                                              1.000000E-10
 DFT|          gradient                                             1.000000E-10
 DFT|          tau                                                  1.000000E-10
 DFT|          cutoff_smoothing_range                               0.000000E+00
 DFT| XC density smoothing                                                  NONE
 DFT| XC derivatives                                                          PW

 FUNCTIONAL| PBE:
 FUNCTIONAL| J.P.Perdew, K.Burke, M.Ernzerhof, Phys. Rev. Letter, vol. 77, n 18,
 FUNCTIONAL|  pp. 3865-3868, (1996)sx=0.750sc=1.000{spin unpolarized}           


 QS| Method:                                                                GAPW
 QS| Density plane wave grid type                        NON-SPHERICAL FULLSPACE
 QS| Number of grid levels:                                                    4
 QS| Density cutoff [a.u.]:                                                250.0
 QS| Multi grid cutoff [a.u.]: 1) grid level                               250.0
 QS|                           2) grid level                                83.3
 QS|                           3) grid level                                27.8
 QS|                           4) grid level                                 9.3
 QS| Grid level progression factor:                                          3.0
 QS| Relative density cutoff [a.u.]:                                        50.0
 QS| Interaction thresholds: eps_pgf_orb:                                1.0E-12
 QS|                         eps_filter_matrix:                          0.0E+00
 QS|                         eps_core_charge:                            1.0E-14
 QS|                         eps_rho_gspace:                             1.0E-12
 QS|                         eps_rho_rspace:                             1.0E-12
 QS|                         eps_gvg_rspace:                             1.0E-06
 QS|                         eps_ppl:                                    1.0E-02
 QS|                         eps_ppnl:                                   1.0E-08
 QS| GAPW|      One center basis from orbital basis primitives
 QS| GAPW|                   eps_fit:                                    1.0E-04
 QS| GAPW|                   eps_iso:                                    1.0E-12
 QS| GAPW|                   eps_svd:                                    1.0E-08
 QS| GAPW|                   eps_cpc:                                    1.0E-12
 QS| GAPW|   atom-r-grid: quadrature:                                     GC_LOG
 QS| GAPW|      atom-s-grid:  max l :                                          6
 QS| GAPW|      max_l_rho0 :                                                   2


 ATOMIC KIND INFORMATION

  1. Atomic kind: C                                     Number of atoms:       2

     Orbital Basis Set                                        aug-DZVP-MOLOPT-ae

       Number of orbital shell sets:                                           2
       Number of orbital shells:                                              10
       Number of primitive Cartesian functions:                               13
       Number of Cartesian basis functions:                                   35
       Number of spherical basis functions:                                   30
       Norm type:                                                              2

       Normalised Cartesian orbitals:

                        Set   Shell   Orbital            Exponent    Coefficient

                          1       1    2px               0.050000       0.000000
                                                         0.096935       0.005344
                                                         0.300899       0.144116
                                                         0.937529       0.673511
                                                         4.145546       1.425967
                          1       1    2py               0.050000       0.000000
                                                         0.096935       0.005344
                                                         0.300899       0.144116
                                                         0.937529       0.673511
                                                         4.145546       1.425967
                          1       1    2pz               0.050000       0.000000
                                                         0.096935       0.005344
                                                         0.300899       0.144116
                                                         0.937529       0.673511
                                                         4.145546       1.425967

                          1       2    3px               0.050000       0.000000
                                                         0.096935       0.066903
                                                         0.300899       0.082631
                                                         0.937529      -0.414500
                                                         4.145546      -0.833488
                          1       2    3py               0.050000       0.000000
                                                         0.096935       0.066903
                                                         0.300899       0.082631
                                                         0.937529      -0.414500
                                                         4.145546      -0.833488
                          1       2    3pz               0.050000       0.000000
                                                         0.096935       0.066903
                                                         0.300899       0.082631
                                                         0.937529      -0.414500
                                                         4.145546      -0.833488

                          1       3    4px               0.050000       0.052477
                                                         0.096935      -0.149600
                                                         0.300899      -0.031452
                                                         0.937529       0.106528
                                                         4.145546       0.000000
                          1       3    4py               0.050000       0.052477
                                                         0.096935      -0.149600
                                                         0.300899      -0.031452
                                                         0.937529       0.106528
                                                         4.145546       0.000000
                          1       3    4pz               0.050000       0.052477
                                                         0.096935      -0.149600
                                                         0.300899      -0.031452
                                                         0.937529       0.106528
                                                         4.145546       0.000000

                          1       4    3dx2              0.050000       0.000000
                                                         0.096935       0.001258
                                                         0.300899       0.105504
                                                         0.937529       0.830801
                                                         4.145546       0.718979
                          1       4    3dxy              0.050000       0.000000
                                                         0.096935       0.002179
                                                         0.300899       0.182739
                                                         0.937529       1.438990
                                                         4.145546       1.245309
                          1       4    3dxz              0.050000       0.000000
                                                         0.096935       0.002179
                                                         0.300899       0.182739
                                                         0.937529       1.438990
                                                         4.145546       1.245309
                          1       4    3dy2              0.050000       0.000000
                                                         0.096935       0.001258
                                                         0.300899       0.105504
                                                         0.937529       0.830801
                                                         4.145546       0.718979
                          1       4    3dyz              0.050000       0.000000
                                                         0.096935       0.002179
                                                         0.300899       0.182739
                                                         0.937529       1.438990
                                                         4.145546       1.245309
                          1       4    3dz2              0.050000       0.000000
                                                         0.096935       0.001258
                                                         0.300899       0.105504
                                                         0.937529       0.830801
                                                         4.145546       0.718979

                          1       5    4dx2              0.050000      -0.011665
                                                         0.096935       0.057456
                                                         0.300899      -0.258169
                                                         0.937529       0.000000
                                                         4.145546       0.000000
                          1       5    4dxy              0.050000      -0.020204
                                                         0.096935       0.099516
                                                         0.300899      -0.447162
                                                         0.937529       0.000000
                                                         4.145546       0.000000
                          1       5    4dxz              0.050000      -0.020204
                                                         0.096935       0.099516
                                                         0.300899      -0.447162
                                                         0.937529       0.000000
                                                         4.145546       0.000000
                          1       5    4dy2              0.050000      -0.011665
                                                         0.096935       0.057456
                                                         0.300899      -0.258169
                                                         0.937529       0.000000
                                                         4.145546       0.000000
                          1       5    4dyz              0.050000      -0.020204
                                                         0.096935       0.099516
                                                         0.300899      -0.447162
                                                         0.937529       0.000000
                                                         4.145546       0.000000
                          1       5    4dz2              0.050000      -0.011665
                                                         0.096935       0.057456
                                                         0.300899      -0.258169
                                                         0.937529       0.000000
                                                         4.145546       0.000000

                          1       6    4fx3              0.050000      -0.000180
                                                         0.096935       0.008160
                                                         0.300899       0.004002
                                                         0.937529       0.000000
                                                         4.145546       0.000000
                          1       6    4fx2y             0.050000      -0.000402
                                                         0.096935       0.018246
                                                         0.300899       0.008949
                                                         0.937529       0.000000
                                                         4.145546       0.000000
                          1       6    4fx2z             0.050000      -0.000402
                                                         0.096935       0.018246
                                                         0.300899       0.008949
                                                         0.937529       0.000000
                                                         4.145546       0.000000
                          1       6    4fxy2             0.050000      -0.000402
                                                         0.096935       0.018246
                                                         0.300899       0.008949
                                                         0.937529       0.000000
                                                         4.145546       0.000000
                          1       6    4fxyz             0.050000      -0.000696
                                                         0.096935       0.031603
                                                         0.300899       0.015500
                                                         0.937529       0.000000
                                                         4.145546       0.000000
                          1       6    4fxz2             0.050000      -0.000402
                                                         0.096935       0.018246
                                                         0.300899       0.008949
                                                         0.937529       0.000000
                                                         4.145546       0.000000
                          1       6    4fy3              0.050000      -0.000180
                                                         0.096935       0.008160
                                                         0.300899       0.004002
                                                         0.937529       0.000000
                                                         4.145546       0.000000
                          1       6    4fy2z             0.050000      -0.000402
                                                         0.096935       0.018246
                                                         0.300899       0.008949
                                                         0.937529       0.000000
                                                         4.145546       0.000000
                          1       6    4fyz2             0.050000      -0.000402
                                                         0.096935       0.018246
                                                         0.300899       0.008949
                                                         0.937529       0.000000
                                                         4.145546       0.000000
                          1       6    4fz3              0.050000      -0.000180
                                                         0.096935       0.008160
                                                         0.300899       0.004002
                                                         0.937529       0.000000
                                                         4.145546       0.000000

                          2       1    1s                0.060000       0.000000
                                                         0.161278       0.024253
                                                         0.523772      -0.029268
                                                         3.176528       0.666384
                                                        10.501907       2.110671
                                                        40.805234       2.242010
                                                       186.270922       1.801845
                                                      1238.394264      -0.490536

                          2       2    2s                0.060000       0.000000
                                                         0.161278       0.080328
                                                         0.523772       0.279468
                                                         3.176528      -0.079506
                                                        10.501907      -0.033488
                                                        40.805234       0.350132
                                                       186.270922      -0.108171
                                                      1238.394264       0.147138

                          2       3    3s                0.060000       0.000000
                                                         0.161278       0.225687
                                                         0.523772      -0.382710
                                                         3.176528      -0.308205
                                                        10.501907      -0.974990
                                                        40.805234      -2.174132
                                                       186.270922       1.755878
                                                      1238.394264     -12.484315

                          2       4    4s                0.060000      -0.055653
                                                         0.161278      -0.019607
                                                         0.523772       0.500289
                                                         3.176528       0.067234
                                                        10.501907       0.000000
                                                        40.805234       0.000000
                                                       186.270922       0.000000
                                                      1238.394264       0.000000

     RI Auxiliary Basis Set             RI_aug-DZVP-MOLOPT-ae_N_RI_035_s_p_d_f_g

       Number of orbital shell sets:                                          13
       Number of orbital shells:                                              13
       Number of primitive Cartesian functions:                               13
       Number of Cartesian basis functions:                                   40
       Number of spherical basis functions:                                   35
       Norm type:                                                              2

       Normalised Cartesian orbitals:

                        Set   Shell   Orbital            Exponent    Coefficient

                          1       1    1s                0.134513       0.158301

                          2       1    7px               0.345342       0.377357
                          2       1    7py               0.345342       0.377357
                          2       1    7pz               0.345342       0.377357

                          3       1    2s                0.391664       0.352854

                          4       1   11dx2              0.436474       0.385777
                          4       1   11dxy              0.436474       0.668185
                          4       1   11dxz              0.436474       0.668185
                          4       1   11dy2              0.436474       0.385777
                          4       1   11dyz              0.436474       0.668185
                          4       1   11dz2              0.436474       0.385777

                          5       1    8px               0.727642       0.957938
                          5       1    8py               0.727642       0.957938
                          5       1    8pz               0.727642       0.957938

                          6       1   13fx3              0.949659       1.310636
                          6       1   13fx2y             0.949659       2.930670
                          6       1   13fx2z             0.949659       2.930670
                          6       1   13fxy2             0.949659       2.930670
                          6       1   13fxyz             0.949659       5.076070
                          6       1   13fxz2             0.949659       2.930670
                          6       1   13fy3              0.949659       1.310636
                          6       1   13fy2z             0.949659       2.930670
                          6       1   13fyz2             0.949659       2.930670
                          6       1   13fz3              0.949659       1.310636

                          7       1   12dx2              1.330423       2.712634
                          7       1   12dxy              1.330423       4.698420
                          7       1   12dxz              1.330423       4.698420
                          7       1   12dy2              1.330423       2.712634
                          7       1   12dyz              1.330423       4.698420
                          7       1   12dz2              1.330423       2.712634

                          8       1    3s                1.404274       0.919388

                          9       1    9px               3.021876       5.679182
                          9       1    9py               3.021876       5.679182
                          9       1    9pz               3.021876       5.679182

                         10       1    4s                5.605818       2.596506

                         11       1   10px              16.034552      45.736309
                         11       1   10py              16.034552      45.736309
                         11       1   10pz              16.034552      45.736309

                         12       1    5s               21.900534       7.215246

                         13       1    6s               82.022187      19.424892

       Atomic covalent radius [Angstrom]:                                  0.770

       Atomic van der Waals radius [Angstrom]:                             1.700

     The atoms of this atomic kind are PAW atoms (GAPW):
       Hard Gaussian function radius:                                      1.512
       Rho0 radius:                                                        1.512
       Maximum GTO radius used for PAW projector construction:            24.566

     GAPW Soft Basis Set                                 aug-DZVP-MOLOPT-ae_soft

       Number of orbital shell sets:                                           2
       Number of orbital shells:                                              10
       Number of primitive Cartesian functions:                                9
       Number of Cartesian basis functions:                                   35
       Number of spherical basis functions:                                   30
       Norm type:                                                              2

       Normalised Cartesian orbitals:

                        Set   Shell   Orbital            Exponent    Coefficient

                          1       1    2px               0.050000       0.000000
                                                         0.096935       0.005344
                                                         0.300899       0.144116
                                                         0.937529       0.673511
                                                         4.145546       1.425967
                          1       1    2py               0.050000       0.000000
                                                         0.096935       0.005344
                                                         0.300899       0.144116
                                                         0.937529       0.673511
                                                         4.145546       1.425967
                          1       1    2pz               0.050000       0.000000
                                                         0.096935       0.005344
                                                         0.300899       0.144116
                                                         0.937529       0.673511
                                                         4.145546       1.425967

                          1       2    3px               0.050000       0.000000
                                                         0.096935       0.066903
                                                         0.300899       0.082631
                                                         0.937529      -0.414500
                                                         4.145546      -0.833488
                          1       2    3py               0.050000       0.000000
                                                         0.096935       0.066903
                                                         0.300899       0.082631
                                                         0.937529      -0.414500
                                                         4.145546      -0.833488
                          1       2    3pz               0.050000       0.000000
                                                         0.096935       0.066903
                                                         0.300899       0.082631
                                                         0.937529      -0.414500
                                                         4.145546      -0.833488

                          1       3    4px               0.050000       0.052477
                                                         0.096935      -0.149600
                                                         0.300899      -0.031452
                                                         0.937529       0.106528
                                                         4.145546       0.000000
                          1       3    4py               0.050000       0.052477
                                                         0.096935      -0.149600
                                                         0.300899      -0.031452
                                                         0.937529       0.106528
                                                         4.145546       0.000000
                          1       3    4pz               0.050000       0.052477
                                                         0.096935      -0.149600
                                                         0.300899      -0.031452
                                                         0.937529       0.106528
                                                         4.145546       0.000000

                          1       4    3dx2              0.050000       0.000000
                                                         0.096935       0.001258
                                                         0.300899       0.105504
                                                         0.937529       0.830801
                                                         4.145546       0.718979
                          1       4    3dxy              0.050000       0.000000
                                                         0.096935       0.002179
                                                         0.300899       0.182739
                                                         0.937529       1.438990
                                                         4.145546       1.245309
                          1       4    3dxz              0.050000       0.000000
                                                         0.096935       0.002179
                                                         0.300899       0.182739
                                                         0.937529       1.438990
                                                         4.145546       1.245309
                          1       4    3dy2              0.050000       0.000000
                                                         0.096935       0.001258
                                                         0.300899       0.105504
                                                         0.937529       0.830801
                                                         4.145546       0.718979
                          1       4    3dyz              0.050000       0.000000
                                                         0.096935       0.002179
                                                         0.300899       0.182739
                                                         0.937529       1.438990
                                                         4.145546       1.245309
                          1       4    3dz2              0.050000       0.000000
                                                         0.096935       0.001258
                                                         0.300899       0.105504
                                                         0.937529       0.830801
                                                         4.145546       0.718979

                          1       5    4dx2              0.050000      -0.011665
                                                         0.096935       0.057456
                                                         0.300899      -0.258169
                                                         0.937529       0.000000
                                                         4.145546       0.000000
                          1       5    4dxy              0.050000      -0.020204
                                                         0.096935       0.099516
                                                         0.300899      -0.447162
                                                         0.937529       0.000000
                                                         4.145546       0.000000
                          1       5    4dxz              0.050000      -0.020204
                                                         0.096935       0.099516
                                                         0.300899      -0.447162
                                                         0.937529       0.000000
                                                         4.145546       0.000000
                          1       5    4dy2              0.050000      -0.011665
                                                         0.096935       0.057456
                                                         0.300899      -0.258169
                                                         0.937529       0.000000
                                                         4.145546       0.000000
                          1       5    4dyz              0.050000      -0.020204
                                                         0.096935       0.099516
                                                         0.300899      -0.447162
                                                         0.937529       0.000000
                                                         4.145546       0.000000
                          1       5    4dz2              0.050000      -0.011665
                                                         0.096935       0.057456
                                                         0.300899      -0.258169
                                                         0.937529       0.000000
                                                         4.145546       0.000000

                          1       6    4fx3              0.050000      -0.000180
                                                         0.096935       0.008160
                                                         0.300899       0.004002
                                                         0.937529       0.000000
                                                         4.145546       0.000000
                          1       6    4fx2y             0.050000      -0.000402
                                                         0.096935       0.018246
                                                         0.300899       0.008949
                                                         0.937529       0.000000
                                                         4.145546       0.000000
                          1       6    4fx2z             0.050000      -0.000402
                                                         0.096935       0.018246
                                                         0.300899       0.008949
                                                         0.937529       0.000000
                                                         4.145546       0.000000
                          1       6    4fxy2             0.050000      -0.000402
                                                         0.096935       0.018246
                                                         0.300899       0.008949
                                                         0.937529       0.000000
                                                         4.145546       0.000000
                          1       6    4fxyz             0.050000      -0.000696
                                                         0.096935       0.031603
                                                         0.300899       0.015500
                                                         0.937529       0.000000
                                                         4.145546       0.000000
                          1       6    4fxz2             0.050000      -0.000402
                                                         0.096935       0.018246
                                                         0.300899       0.008949
                                                         0.937529       0.000000
                                                         4.145546       0.000000
                          1       6    4fy3              0.050000      -0.000180
                                                         0.096935       0.008160
                                                         0.300899       0.004002
                                                         0.937529       0.000000
                                                         4.145546       0.000000
                          1       6    4fy2z             0.050000      -0.000402
                                                         0.096935       0.018246
                                                         0.300899       0.008949
                                                         0.937529       0.000000
                                                         4.145546       0.000000
                          1       6    4fyz2             0.050000      -0.000402
                                                         0.096935       0.018246
                                                         0.300899       0.008949
                                                         0.937529       0.000000
                                                         4.145546       0.000000
                          1       6    4fz3              0.050000      -0.000180
                                                         0.096935       0.008160
                                                         0.300899       0.004002
                                                         0.937529       0.000000
                                                         4.145546       0.000000

                          2       1    1s                0.060000       0.000000
                                                         0.161278       0.024253
                                                         0.523772      -0.029268
                                                         3.176528       0.666384

                          2       2    2s                0.060000       0.000000
                                                         0.161278       0.080328
                                                         0.523772       0.279468
                                                         3.176528      -0.079506

                          2       3    3s                0.060000       0.000000
                                                         0.161278       0.225687
                                                         0.523772      -0.382710
                                                         3.176528      -0.308205

                          2       4    4s                0.060000      -0.055653
                                                         0.161278      -0.019607
                                                         0.523772       0.500289
                                                         3.176528       0.067234

     AE Potential information for                                            ALL

       Description:                                       All-electron potential
                                          Krack, Parrinello, PCCP 2, 2105 (2000)

       Gaussian exponent of the core charge distribution:               4.109048
       Electronic configuration (s p d ...):                           4   2   0


 MOLECULE KIND INFORMATION


 All atoms are their own molecule, skipping detailed information


 TOTAL NUMBERS AND MAXIMUM NUMBERS

  Total number of            - Atomic kinds:                                   1
                             - Atoms:                                          2
                             - Shell sets:                                     4
                             - Shells:                                        20
                             - Primitive Cartesian functions:                 26
                             - Cartesian basis functions:                     70
                             - Spherical basis functions:                     60

  Maximum angular momentum of the orbital basis functions:                     3


 MODULE QUICKSTEP: ATOMIC COORDINATES IN ANGSTROM

   Atom Kind Element         X             Y             Z       Z(eff)     Mass
      1    1 C     6     15.620000     15.000000     15.000000   6.0000  12.0107
      2    1 C     6     14.380000     15.000000     15.000000   6.0000  12.0107



 SCF PARAMETERS         Density guess:                                    ATOMIC
                        --------------------------------------------------------
                        max_scf:                                             500
                        max_scf_history:                                       0
                        max_diis:                                              4
                        --------------------------------------------------------
                        eps_scf:                                        1.00E-06
                        eps_scf_history:                                0.00E+00
                        eps_diis:                                       1.00E-01
                        eps_eigval:                                     1.00E-05
                        --------------------------------------------------------
                        level_shift [a.u.]:                             0.000000
                        added MOs                                        54    0
                        --------------------------------------------------------
                        Mixing method:                            BROYDEN_MIXING
                                                charge density mixing in g-space
                        --------------------------------------------------------
                        No outer SCF

 PW_GRID| Information for grid number                                          1
 PW_GRID| Grid distributed over                                    24 processors
 PW_GRID| Real space group dimensions                                    24    1
 PW_GRID| the grid is blocked:                                                NO
 PW_GRID| Cutoff [a.u.]                                                    250.0
 PW_GRID| spherical cutoff:                                                   NO
 PW_GRID|   Bounds   1           -202     202                Points:         405
 PW_GRID|   Bounds   2           -202     202                Points:         405
 PW_GRID|   Bounds   3           -202     202                Points:         405
 PW_GRID| Volume element (a.u.^3)  0.2743E-02     Volume (a.u.^3)    182205.0337
 PW_GRID| Grid span                                                    FULLSPACE
 PW_GRID|   Distribution                         Average         Max         Min
 PW_GRID|   G-Vectors                          2767921.9     2768175     2767770
 PW_GRID|   G-Rays                                6834.4        6835        6834
 PW_GRID|   Real Space Points                  2767921.9     2788425     2624400

 PW_GRID| Information for grid number                                          2
 PW_GRID| Number of the reference grid                                         1
 PW_GRID| Grid distributed over                                    24 processors
 PW_GRID| Real space group dimensions                                    24    1
 PW_GRID| the grid is blocked:                                                NO
 PW_GRID| Cutoff [a.u.]                                                     83.3
 PW_GRID| spherical cutoff:                                                   NO
 PW_GRID|   Bounds   1           -120     119                Points:         240
 PW_GRID|   Bounds   2           -120     119                Points:         240
 PW_GRID|   Bounds   3           -120     119                Points:         240
 PW_GRID| Volume element (a.u.^3)  0.1318E-01     Volume (a.u.^3)    182205.0337
 PW_GRID| Grid span                                                    FULLSPACE
 PW_GRID|   Distribution                         Average         Max         Min
 PW_GRID|   G-Vectors                           576000.0      576240      575760
 PW_GRID|   G-Rays                                2400.0        2401        2399
 PW_GRID|   Real Space Points                   576000.0      576000      576000

 PW_GRID| Information for grid number                                          3
 PW_GRID| Number of the reference grid                                         1
 PW_GRID| Grid distributed over                                    24 processors
 PW_GRID| Real space group dimensions                                    24    1
 PW_GRID| the grid is blocked:                                                NO
 PW_GRID| Cutoff [a.u.]                                                     27.8
 PW_GRID| spherical cutoff:                                                   NO
 PW_GRID|   Bounds   1            -67      67                Points:         135
 PW_GRID|   Bounds   2            -67      67                Points:         135
 PW_GRID|   Bounds   3            -67      67                Points:         135
 PW_GRID| Volume element (a.u.^3)  0.7406E-01     Volume (a.u.^3)    182205.0337
 PW_GRID| Grid span                                                    FULLSPACE
 PW_GRID|   Distribution                         Average         Max         Min
 PW_GRID|   G-Vectors                           102515.6      102735      102330
 PW_GRID|   G-Rays                                 759.4         761         758
 PW_GRID|   Real Space Points                   102515.6      109350       91125

 PW_GRID| Information for grid number                                          4
 PW_GRID| Number of the reference grid                                         1
 PW_GRID| Grid distributed over                                    24 processors
 PW_GRID| Real space group dimensions                                    24    1
 PW_GRID| the grid is blocked:                                                NO
 PW_GRID| Cutoff [a.u.]                                                      9.3
 PW_GRID| spherical cutoff:                                                   NO
 PW_GRID|   Bounds   1            -40      39                Points:          80
 PW_GRID|   Bounds   2            -40      39                Points:          80
 PW_GRID|   Bounds   3            -40      39                Points:          80
 PW_GRID| Volume element (a.u.^3)  0.3559         Volume (a.u.^3)    182205.0337
 PW_GRID| Grid span                                                    FULLSPACE
 PW_GRID|   Distribution                         Average         Max         Min
 PW_GRID|   G-Vectors                            21333.3       21360       21280
 PW_GRID|   G-Rays                                 266.7         267         266
 PW_GRID|   Real Space Points                    21333.3       25600       19200

 POISSON| Solver                                                         WAVELET
 POISSON| Wavelet| Scaling function                                           40
 POISSON| Periodicity                                                       NONE

 RS_GRID| Information for grid number                                          1
 RS_GRID|   Bounds   1           -202     202                Points:         405
 RS_GRID|   Bounds   2           -202     202                Points:         405
 RS_GRID|   Bounds   3           -202     202                Points:         405
 RS_GRID| Real space distribution over                                  4 groups
 RS_GRID| Real space distribution along direction                              2
 RS_GRID| Border size                                                         35
 RS_GRID| Real space distribution over                                  6 groups
 RS_GRID| Real space distribution along direction                              3
 RS_GRID| Border size                                                         35
 RS_GRID|   Distribution                         Average         Max         Min
 RS_GRID|   Planes                                 171.2         172         171
 RS_GRID|   Distribution                         Average         Max         Min
 RS_GRID|   Planes                                 137.5         138         137

 RS_GRID| Information for grid number                                          2
 RS_GRID|   Bounds   1           -120     119                Points:         240
 RS_GRID|   Bounds   2           -120     119                Points:         240
 RS_GRID|   Bounds   3           -120     119                Points:         240
 RS_GRID| Real space distribution over                                  4 groups
 RS_GRID| Real space distribution along direction                              2
 RS_GRID| Border size                                                         38
 RS_GRID| Real space distribution over                                  6 groups
 RS_GRID| Real space distribution along direction                              3
 RS_GRID| Border size                                                         38
 RS_GRID|   Distribution                         Average         Max         Min
 RS_GRID|   Planes                                 136.0         136         136
 RS_GRID|   Distribution                         Average         Max         Min
 RS_GRID|   Planes                                 116.0         116         116

 RS_GRID| Information for grid number                                          3
 RS_GRID|   Bounds   1            -67      67                Points:         135
 RS_GRID|   Bounds   2            -67      67                Points:         135
 RS_GRID|   Bounds   3            -67      67                Points:         135
 RS_GRID| Real space fully replicated
 RS_GRID| Group size                                                           1

 RS_GRID| Information for grid number                                          4
 RS_GRID|   Bounds   1            -40      39                Points:          80
 RS_GRID|   Bounds   2            -40      39                Points:          80
 RS_GRID|   Bounds   3            -40      39                Points:          80
 RS_GRID| Real space fully replicated
 RS_GRID| Group size                                                           1

  HFX_INFO| Replica ID:                                                        1
  HFX_INFO| FRACTION:                                               0.2500000000
  HFX_INFO| Interaction Potential:                                       COULOMB
  HFX_INFO| EPS_SCHWARZ:                                                 1.0E-10
  HFX_INFO| EPS_SCHWARZ_FORCES                                           1.0E-08
  HFX_INFO| EPS_STORAGE_SCALING:                                         1.0E+00
  HFX_INFO| NBINS:                                                            64
  HFX_INFO| BLOCK_SIZE:                                                        1
  HFX_INFO| Number of periodic shells considered:                           NONE
  HFX_INFO| Number of periodic cells considered:                            NONE

 
 RI-RPA| using GPW style
 

 OVERLAP MATRIX CONDITION NUMBER
 1-Norm Condition Number (Estimate)
   CN : |A|*|A^-1|:  5.324E+000 *  8.956E+002   = 4.769E+003  Log(1-CN):  3.6784
 1-Norm and 2-Norm Condition Numbers using Diagonalization
   CN : |A|*|A^-1|:  5.324E+000 *  8.956E+002   = 4.769E+003  Log(1-CN):  3.6784
   CN : max/min ev:  3.467E+000 /  1.709E-003   = 2.029E+003  Log(2-CN):  3.3072

 Number of electrons:                                                         12
 Number of occupied orbitals:                                                  6
 Number of molecular orbitals:                                                60

 Number of orbital functions:                                                 60
 Number of independent orbital functions:                                     60

 Extrapolation method: initial_guess

 Atomic guess: The first density matrix is obtained in terms of atomic orbitals
               and electronic configurations assigned to each atomic kind

 Guess for atomic kind: C

 Electronic structure
    Total number of core electrons                                          0.00
    Total number of valence electrons                                       6.00
    Total number of electrons                                               6.00
    Multiplicity                                                   not specified
    S      2.00  2.00
    P      2.00


 *******************************************************************************
                  Iteration          Convergence                     Energy [au]
 *******************************************************************************
                          1        0.133902                     -37.363061759844
                          2        0.102325                     -37.368472442706
                          3        0.860737E-03                 -37.376215693871
                          4        0.849047E-04                 -37.376216293501
                          5        0.219397E-06                 -37.376216298714

 Energy components [Hartree]           Total Energy ::          -37.376216298714
                                        Band Energy ::          -21.245708131868
                                     Kinetic Energy ::           37.464666877769
                                   Potential Energy ::          -74.840883176484
                                      Virial (-V/T) ::            1.997639093406
                                        Core Energy ::          -50.271057779086
                                          XC Energy ::           -4.736056292831
                                     Coulomb Energy ::           17.630897773203

 Orbital energies  State     L     Occupation   Energy[a.u.]          Energy[eV]

                       1     0          2.000      -9.941022         -270.508975
                       2     0          2.000      -0.490185          -13.338601

                       1     1          2.000      -0.191647           -5.214984


 Total Electron Density at R=0:                                       116.283880
 Re-scaling the density matrix to get the right number of electrons
                  # Electrons              Trace(P)               Scaling factor
                           12                12.000                        1.000


 SCF WAVEFUNCTION OPTIMIZATION

  Step     Update method      Time    Convergence         Total energy    Change
  ------------------------------------------------------------------------------

  HFX_MEM_INFO| Est. max. program size before HFX [MiB]:                    2156
  HFX_MEM_INFO| Number of cart. primitive ERI's calculated:            674513758
  HFX_MEM_INFO| Number of sph. ERI's calculated:                         4860000
  HFX_MEM_INFO| Number of sph. ERI's stored in-core:                     4860000
  HFX_MEM_INFO| Number of sph. ERI's stored on disk:                           0
  HFX_MEM_INFO| Number of sph. ERI's calculated on the fly:                    0
  HFX_MEM_INFO| Total memory consumption ERI's RAM [MiB]:                     20
  HFX_MEM_INFO| Whereof max-vals [MiB]:                                        1
  HFX_MEM_INFO| Total compression factor ERI's RAM:                         1.87
  HFX_MEM_INFO| Total memory consumption ERI's disk [MiB]:                     0
  HFX_MEM_INFO| Total compression factor ERI's disk:                        0.00
  HFX_MEM_INFO| Size of density/Fock matrix [MiB]:                             0
  HFX_MEM_INFO| Size of buffers [MiB]:                                        13
  HFX_MEM_INFO| Est. max. program size after HFX  [MiB]:                    2694

     1 NoMix/Diag. 0.10E+00   18.8     1.31515393       -75.9310665379 -7.59E+01
     2 Broy./Diag. 0.10E+00    4.8     0.03786267       -75.1120750673  8.19E-01
     3 Broy./Diag. 0.10E+00    4.8     0.03612222       -74.7722713269  3.40E-01
     4 Broy./Diag. 0.10E+00    4.9     0.11297437       -75.1044644284 -3.32E-01
     5 Broy./Diag. 0.10E+00    4.9     0.03035415       -75.5941547410 -4.90E-01
     6 Broy./Diag. 0.10E+00    5.0     0.00543255       -75.6729189492 -7.88E-02
     7 Broy./Diag. 0.10E+00    5.1     0.00530417       -75.6657737796  7.15E-03
     8 Broy./Diag. 0.10E+00    5.1     0.00091954       -75.6769877144 -1.12E-02
     9 Broy./Diag. 0.10E+00    5.3     0.00183013       -75.6710913973  5.90E-03
    10 Broy./Diag. 0.10E+00    5.5     0.00300336       -75.6795459025 -8.45E-03
    11 Broy./Diag. 0.10E+00    5.3     0.00295092       -75.6968052718 -1.73E-02
    12 Broy./Diag. 0.10E+00    5.3     0.00332821       -75.7153868303 -1.86E-02
    13 Broy./Diag. 0.10E+00    5.3     0.00072513       -75.7284432109 -1.31E-02
    14 Broy./Diag. 0.10E+00    5.3     0.00205284       -75.7188822037  9.56E-03
    15 Broy./Diag. 0.10E+00    5.3     0.00034867       -75.7128604857  6.02E-03
    16 Broy./Diag. 0.10E+00    5.4     0.00027211       -75.7151758074 -2.32E-03
    17 Broy./Diag. 0.10E+00    5.4     0.00070564       -75.7169562185 -1.78E-03
    18 Broy./Diag. 0.10E+00    5.4     0.00105219       -75.7214948996 -4.54E-03
    19 Broy./Diag. 0.10E+00    5.3     0.00013553       -75.7250245881 -3.53E-03
    20 Broy./Diag. 0.10E+00    5.3     0.00020360       -75.7246290513  3.96E-04
    21 Broy./Diag. 0.10E+00    5.4     0.00009516       -75.7239210238  7.08E-04
    22 Broy./Diag. 0.10E+00    5.3     0.00044873       -75.7215842220  2.34E-03
    23 Broy./Diag. 0.10E+00    5.3     0.00014110       -75.7204773987  1.11E-03
    24 Broy./Diag. 0.10E+00    5.4     0.00023403       -75.7217864511 -1.31E-03
    25 Broy./Diag. 0.10E+00    5.4     0.00005883       -75.7224017083 -6.15E-04
    26 Broy./Diag. 0.10E+00    5.4     0.00005303       -75.7221282350  2.73E-04
    27 Broy./Diag. 0.10E+00    5.3     0.00008431       -75.7224064733 -2.78E-04
    28 Broy./Diag. 0.10E+00    5.3     0.00003197       -75.7227349640 -3.28E-04
    29 Broy./Diag. 0.10E+00    5.3     0.00006767       -75.7229907594 -2.56E-04
    30 Broy./Diag. 0.10E+00    5.3     0.00008337       -75.7230493109 -5.86E-05
    31 Broy./Diag. 0.10E+00    5.4     0.00014982       -75.7226397051  4.10E-04
    32 Broy./Diag. 0.10E+00    5.4     0.00006529       -75.7224393694  2.00E-04
    33 Broy./Diag. 0.10E+00    5.4     0.00005158       -75.7225991880 -1.60E-04
    34 Broy./Diag. 0.10E+00    5.4     0.00003622       -75.7225949124  4.28E-06
    35 Broy./Diag. 0.10E+00    5.3     0.00006477       -75.7224729379  1.22E-04
    36 Broy./Diag. 0.10E+00    5.3     0.00005221       -75.7223900569  8.29E-05
    37 Broy./Diag. 0.10E+00    5.3     0.00003994       -75.7223848335  5.22E-06
    38 Broy./Diag. 0.10E+00    5.3     0.00002993       -75.7223827552  2.08E-06
    39 Broy./Diag. 0.10E+00    5.3     0.00003940       -75.7224276194 -4.49E-05
    40 Broy./Diag. 0.10E+00    5.3     0.00003538       -75.7224574721 -2.99E-05
    41 Broy./Diag. 0.10E+00    5.5     0.00004680       -75.7224652089 -7.74E-06
    42 Broy./Diag. 0.10E+00    5.4     0.00003228       -75.7224360973  2.91E-05
    43 Broy./Diag. 0.10E+00    5.3     0.00002855       -75.7223972012  3.89E-05
    44 Broy./Diag. 0.10E+00    5.4     0.00003230       -75.7223685240  2.87E-05
    45 Broy./Diag. 0.10E+00    5.3     0.00003692       -75.7224108418 -4.23E-05
    46 Broy./Diag. 0.10E+00    5.3     0.00003120       -75.7224747470 -6.39E-05
    47 Broy./Diag. 0.10E+00    5.3     0.00003058       -75.7224324177  4.23E-05
    48 Broy./Diag. 0.10E+00    5.3     0.00002711       -75.7224046382  2.78E-05
    49 Broy./Diag. 0.10E+00    5.5     0.00004384       -75.7225233824 -1.19E-04
    50 Broy./Diag. 0.10E+00    5.4     0.00004798       -75.7225811527 -5.78E-05
    51 Broy./Diag. 0.10E+00    5.3     0.00005532       -75.7225450768  3.61E-05
    52 Broy./Diag. 0.10E+00    5.3     0.00005433       -75.7225184794  2.66E-05
    53 Broy./Diag. 0.10E+00    5.3     0.00005173       -75.7225154781  3.00E-06
    54 Broy./Diag. 0.10E+00    5.3     0.00005741       -75.7225051941  1.03E-05
    55 Broy./Diag. 0.10E+00    5.4     0.00005684       -75.7224991423  6.05E-06
    56 Broy./Diag. 0.10E+00    5.3     0.00004760       -75.7224994215 -2.79E-07
    57 Broy./Diag. 0.10E+00    5.4     0.00005191       -75.7225031765 -3.75E-06
    58 Broy./Diag. 0.10E+00    5.4     0.00005211       -75.7225192290 -1.61E-05
    59 Broy./Diag. 0.10E+00    5.3     0.00004831       -75.7225281195 -8.89E-06
    60 Broy./Diag. 0.10E+00    5.3     0.00005028       -75.7225244951  3.62E-06
    61 Broy./Diag. 0.10E+00    5.3     0.00004658       -75.7225296293 -5.13E-06
    62 Broy./Diag. 0.10E+00    5.3     0.00004270       -75.7225318541 -2.22E-06
    63 Broy./Diag. 0.10E+00    5.3     0.00004360       -75.7225313405  5.14E-07
    64 Broy./Diag. 0.10E+00    5.3     0.00003867       -75.7225385452 -7.20E-06
    65 Broy./Diag. 0.10E+00    5.4     0.00003089       -75.7225345330  4.01E-06
    66 Broy./Diag. 0.10E+00    5.5     0.00003417       -75.7225224500  1.21E-05
    67 Broy./Diag. 0.10E+00    5.3     0.00003259       -75.7225348133 -1.24E-05
    68 Broy./Diag. 0.10E+00    5.3     0.00003060       -75.7225586087 -2.38E-05
    69 Broy./Diag. 0.10E+00    5.3     0.00003767       -75.7225630251 -4.42E-06
    70 Broy./Diag. 0.10E+00    5.3     0.00003287       -75.7225700980 -7.07E-06
    71 Broy./Diag. 0.10E+00    5.3     0.00003051       -75.7225740997 -4.00E-06
    72 Broy./Diag. 0.10E+00    5.3     0.00002840       -75.7225730913  1.01E-06
    73 Broy./Diag. 0.10E+00    5.4     0.00002450       -75.7225749440 -1.85E-06
    74 Broy./Diag. 0.10E+00    5.4     0.00004649       -75.7225284272  4.65E-05
    75 Broy./Diag. 0.10E+00    5.4     0.00002989       -75.7224182831  1.10E-04
    76 Broy./Diag. 0.10E+00    5.3     0.00001530       -75.7224659715 -4.77E-05
    77 Broy./Diag. 0.10E+00    5.4     0.00002470       -75.7224793665 -1.34E-05
    78 Broy./Diag. 0.10E+00    5.3     0.00007952       -75.7223787621  1.01E-04
    79 Broy./Diag. 0.10E+00    5.3     0.00007031       -75.7225424749 -1.64E-04
    80 Broy./Diag. 0.10E+00    5.3     0.00006382       -75.7227057750 -1.63E-04
    81 Broy./Diag. 0.10E+00    5.4     0.00015917       -75.7226607980  4.50E-05
    82 Broy./Diag. 0.10E+00    5.5     0.00016647       -75.7225209220  1.40E-04
    83 Broy./Diag. 0.10E+00    5.3     0.00009354       -75.7224309166  9.00E-05
    84 Broy./Diag. 0.10E+00    5.3     0.00006462       -75.7223120395  1.19E-04
    85 Broy./Diag. 0.10E+00    5.3     0.00043220       -75.7225428371 -2.31E-04
    86 Broy./Diag. 0.10E+00    5.3     0.00046916       -75.7223649259  1.78E-04
    87 Broy./Diag. 0.10E+00    5.3     0.00016630       -75.7222243818  1.41E-04
    88 Broy./Diag. 0.10E+00    5.3     0.00014860       -75.7226138079 -3.89E-04
    89 Broy./Diag. 0.10E+00    5.4     0.00019243       -75.7226124244  1.38E-06
    90 Broy./Diag. 0.10E+00    5.4     0.00023717       -75.7225875762  2.48E-05
    91 Broy./Diag. 0.10E+00    5.3     0.00030172       -75.7227362246 -1.49E-04
    92 Broy./Diag. 0.10E+00    5.3     0.00037480       -75.7226922418  4.40E-05
    93 Broy./Diag. 0.10E+00    5.3     0.00047149       -75.7226982016 -5.96E-06
    94 Broy./Diag. 0.10E+00    5.4     0.00058652       -75.7227245023 -2.63E-05
    95 Broy./Diag. 0.10E+00    5.3     0.00074995       -75.7226500586  7.44E-05
    96 Broy./Diag. 0.10E+00    5.3     0.00094871       -75.7227958386 -1.46E-04
    97 Broy./Diag. 0.10E+00    5.4     0.00118982       -75.7229841797 -1.88E-04
    98 Broy./Diag. 0.10E+00    5.4     0.00150411       -75.7228828190  1.01E-04
    99 Broy./Diag. 0.10E+00    5.3     0.00188722       -75.7228413469  4.15E-05
   100 Broy./Diag. 0.10E+00    5.4     0.00237164       -75.7227110968  1.30E-04
   101 Broy./Diag. 0.10E+00    5.3     0.00297810       -75.7223049285  4.06E-04
   102 Broy./Diag. 0.10E+00    5.3     0.00374372       -75.7219315611  3.73E-04
   103 Broy./Diag. 0.10E+00    5.3     0.00467402       -75.7216092693  3.22E-04
   104 Broy./Diag. 0.10E+00    5.3     0.00586230       -75.7213368476  2.72E-04
   105 Broy./Diag. 0.10E+00    5.4     0.00737935       -75.7206993400  6.38E-04
   106 Broy./Diag. 0.10E+00    5.4     0.00919341       -75.7200107533  6.89E-04
   107 Broy./Diag. 0.10E+00    5.4     0.01142853       -75.7189767449  1.03E-03
   108 Broy./Diag. 0.10E+00    5.3     0.01409084       -75.7167221537  2.25E-03
   109 Broy./Diag. 0.10E+00    5.3     0.01715249       -75.7129619692  3.76E-03
   110 Broy./Diag. 0.10E+00    5.3     0.02046035       -75.7068161912  6.15E-03
   111 Broy./Diag. 0.10E+00    5.4     0.02373753       -75.6974234691  9.39E-03
   112 Broy./Diag. 0.10E+00    5.3     0.02807985       -75.6838083934  1.36E-02
   113 Broy./Diag. 0.10E+00    5.4     0.03915258       -75.6650252970  1.88E-02
   114 Broy./Diag. 0.10E+00    5.4     0.05235440       -75.6381970423  2.68E-02
   115 Broy./Diag. 0.10E+00    5.3     0.06438122       -75.6032828309  3.49E-02
   116 Broy./Diag. 0.10E+00    5.4     0.07298432       -75.5608355207  4.24E-02
   117 Broy./Diag. 0.10E+00    5.4     0.07531753       -75.5117306771  4.91E-02
   118 Broy./Diag. 0.10E+00    5.3     0.07065996       -75.4603209075  5.14E-02
   119 Broy./Diag. 0.10E+00    5.4     0.06141000       -75.4111293790  4.92E-02
   120 Broy./Diag. 0.10E+00    5.3     0.04911891       -75.3683471779  4.28E-02
   121 Broy./Diag. 0.10E+00    5.4     0.03766219       -75.3301045224  3.82E-02
   122 Broy./Diag. 0.10E+00    5.5     0.02850946       -75.2993545224  3.08E-02
   123 Broy./Diag. 0.10E+00    5.3     0.02087567       -75.2723402699  2.70E-02
   124 Broy./Diag. 0.10E+00    5.3     0.01857843       -75.2461775077  2.62E-02
   125 Broy./Diag. 0.10E+00    5.3     0.01682949       -75.2422288462  3.95E-03
   126 Broy./Diag. 0.10E+00    5.3     0.01541558       -75.2189289840  2.33E-02
   127 Broy./Diag. 0.10E+00    5.3     0.01728144       -75.2807858980 -6.19E-02
   128 Broy./Diag. 0.10E+00    5.3     0.01130267       -75.2644105118  1.64E-02
   129 Broy./Diag. 0.10E+00    5.4     0.00567635       -75.2740746218 -9.66E-03
   130 Broy./Diag. 0.10E+00    5.4     0.02212998       -75.3458503589 -7.18E-02
   131 Broy./Diag. 0.10E+00    5.3     0.01899022       -75.5594105046 -2.14E-01
   132 Broy./Diag. 0.10E+00    5.4     0.03677314       -75.5782134087 -1.88E-02

 *** WARNING in pw/ps_wavelet_methods.F:238 :: Density non-zero on the ***
 *** edges of the unit cell: wrong results in WAVELET solver           ***

   133 Broy./Diag. 0.10E+00    5.3     0.04798061       -75.6806881278 -1.02E-01
   134 Broy./Diag. 0.10E+00    5.4     0.08571616       -75.5538668457  1.27E-01
   135 Broy./Diag. 0.10E+00    5.3     0.13619462       -75.6302207564 -7.64E-02
   136 Broy./Diag. 0.10E+00    5.4     0.16792909       -75.8084079866 -1.78E-01
   137 Broy./Diag. 0.10E+00    5.4     0.08406127       -75.8249645175 -1.66E-02
   138 Broy./Diag. 0.10E+00    5.3     0.03805038       -75.7937143567  3.13E-02
   139 Broy./Diag. 0.10E+00    5.3     0.08761666       -75.7180280670  7.57E-02
   140 Broy./Diag. 0.10E+00    5.3     0.04802101       -75.7656279681 -4.76E-02
   141 Broy./Diag. 0.10E+00    5.4     0.06176940       -75.8004272722 -3.48E-02
   142 Broy./Diag. 0.10E+00    5.3     0.03319103       -75.6872809725  1.13E-01
   143 Broy./Diag. 0.10E+00    5.3     0.00819733       -75.6513647594  3.59E-02
   144 Broy./Diag. 0.10E+00    5.3     0.11732682       -75.7296973634 -7.83E-02
   145 Broy./Diag. 0.10E+00    5.4     0.08554174       -75.7596306403 -2.99E-02
   146 Broy./Diag. 0.10E+00    5.4     0.06158399       -75.7609811626 -1.35E-03
   147 Broy./Diag. 0.10E+00    5.3     0.04898397       -75.7551223531  5.86E-03
   148 Broy./Diag. 0.10E+00    5.3     0.05419003       -75.7870812398 -3.20E-02
   149 Broy./Diag. 0.10E+00    5.3     0.05755400       -75.8174222003 -3.03E-02
   150 Broy./Diag. 0.10E+00    5.4     0.05591363       -75.7999606421  1.75E-02
   151 Broy./Diag. 0.10E+00    5.3     0.04951205       -75.7912812396  8.68E-03
   152 Broy./Diag. 0.10E+00    5.3     0.05658385       -75.7734555810  1.78E-02
   153 Broy./Diag. 0.10E+00    5.4     0.03686996       -75.7478765565  2.56E-02
   154 Broy./Diag. 0.10E+00    5.4     0.02398862       -75.7208692757  2.70E-02
   155 Broy./Diag. 0.10E+00    5.3     0.01993774       -75.7145487775  6.32E-03
   156 Broy./Diag. 0.10E+00    5.3     0.02094533       -75.6951566200  1.94E-02
   157 Broy./Diag. 0.10E+00    5.5     0.02524575       -75.6940873038  1.07E-03
   158 Broy./Diag. 0.10E+00    5.3     0.01653219       -75.7399368919 -4.58E-02
[...]
   429 Broy./Diag. 0.10E+00    5.3     0.07818172       -75.8057012264 -2.59E-02
   430 Broy./Diag. 0.10E+00    5.4     0.07268597       -75.8242609146 -1.86E-02
   431 Broy./Diag. 0.10E+00    5.3     0.06192209       -75.7997725258  2.45E-02
   432 Broy./Diag. 0.10E+00    5.4     0.04873795       -75.7633205210  3.65E-02
   433 Broy./Diag. 0.10E+00    5.4     0.04337065       -75.7246331063  3.87E-02
   434 Broy./Diag. 0.10E+00    5.4     0.03220367       -75.6851258257  3.95E-02
   435 Broy./Diag. 0.10E+00    5.4     0.03542792       -75.6491361235  3.60E-02
   436 Broy./Diag. 0.10E+00    5.3     0.04662815       -75.6201600950  2.90E-02
   437 Broy./Diag. 0.10E+00    5.4     0.04448569       -75.5900631127  3.01E-02
   438 Broy./Diag. 0.10E+00    5.3     0.04158127       -75.5566445880  3.34E-02
   439 Broy./Diag. 0.10E+00    5.3     0.02567673       -75.5824521662 -2.58E-02
   440 Broy./Diag. 0.10E+00    5.4     0.05607247       -75.5773465413  5.11E-03
   441 Broy./Diag. 0.10E+00    5.4     0.02868343       -75.5982273270 -2.09E-02
   442 Broy./Diag. 0.10E+00    5.4     0.11820593       -75.7310547470 -1.33E-01
   443 Broy./Diag. 0.10E+00    5.3     0.16324148       -75.7937010464 -6.26E-02
   444 Broy./Diag. 0.10E+00    5.4     0.08288333       -75.7588963511  3.48E-02
   445 Broy./Diag. 0.10E+00    5.3     0.05031172       -75.7698088592 -1.09E-02
   446 Broy./Diag. 0.10E+00    5.3     0.04077105       -75.7997239412 -2.99E-02
   447 Broy./Diag. 0.10E+00    5.3     0.04676463       -75.8160753186 -1.64E-02
   448 Broy./Diag. 0.10E+00    5.4     0.05842903       -75.8313215970 -1.52E-02
   449 Broy./Diag. 0.10E+00    5.4     0.06027738       -75.8371544400 -5.83E-03
   450 Broy./Diag. 0.10E+00    5.4     0.05356845       -75.8215442680  1.56E-02
   451 Broy./Diag. 0.10E+00    5.3     0.04722851       -75.7898952995  3.16E-02
   452 Broy./Diag. 0.10E+00    5.4     0.05127487       -75.7490629723  4.08E-02
   453 Broy./Diag. 0.10E+00    5.5     0.05435330       -75.7072856682  4.18E-02
   454 Broy./Diag. 0.10E+00    5.3     0.05778915       -75.6630125811  4.43E-02
   455 Broy./Diag. 0.10E+00    5.4     0.05251886       -75.6280072409  3.50E-02
   456 Broy./Diag. 0.10E+00    5.3     0.05005852       -75.5883286659  3.97E-02
   457 Broy./Diag. 0.10E+00    5.4     0.05482050       -75.5505108428  3.78E-02
   458 Broy./Diag. 0.10E+00    5.4     0.05358119       -75.5153711820  3.51E-02
   459 Broy./Diag. 0.10E+00    5.4     0.04707101       -75.4842928419  3.11E-02
   460 Broy./Diag. 0.10E+00    5.4     0.02349799       -75.4946402408 -1.03E-02
   461 Broy./Diag. 0.10E+00    5.3     0.02817631       -75.5338537925 -3.92E-02
   462 Broy./Diag. 0.10E+00    5.3     0.02056817       -75.5533079581 -1.95E-02
   463 Broy./Diag. 0.10E+00    5.3     0.02818487       -75.5719045051 -1.86E-02

 *** WARNING in pw/ps_wavelet_methods.F:238 :: Density non-zero on the ***
 *** edges of the unit cell: wrong results in WAVELET solver           ***

   464 Broy./Diag. 0.10E+00    5.4     0.03171062       -75.5859842356 -1.41E-02

 *** WARNING in pw/ps_wavelet_methods.F:238 :: Density non-zero on the ***
 *** edges of the unit cell: wrong results in WAVELET solver           ***

   465 Broy./Diag. 0.10E+00    5.4     0.05963580       -75.5936968981 -7.71E-03

 *** WARNING in pw/ps_wavelet_methods.F:238 :: Density non-zero on the ***
 *** edges of the unit cell: wrong results in WAVELET solver           ***

   466 Broy./Diag. 0.10E+00    5.3     0.06378841       -75.5376945335  5.60E-02
   467 Broy./Diag. 0.10E+00    5.3     0.06555338       -75.5026932732  3.50E-02

 *** WARNING in pw/ps_wavelet_methods.F:238 :: Density non-zero on the ***
 *** edges of the unit cell: wrong results in WAVELET solver           ***

   468 Broy./Diag. 0.10E+00    5.3     0.13936139       -75.7498476174 -2.47E-01

 *** WARNING in pw/ps_wavelet_methods.F:238 :: Density non-zero on the ***
 *** edges of the unit cell: wrong results in WAVELET solver           ***

   469 Broy./Diag. 0.10E+00    5.3     0.24611868       -75.7910358726 -4.12E-02

 *** WARNING in pw/ps_wavelet_methods.F:238 :: Density non-zero on the ***
 *** edges of the unit cell: wrong results in WAVELET solver           ***

   470 Broy./Diag. 0.10E+00    5.3     0.12521905       -75.7468310310  4.42E-02
   471 Broy./Diag. 0.10E+00    5.3     0.04713809       -75.6703865744  7.64E-02
   472 Broy./Diag. 0.10E+00    5.3     0.03319063       -75.7024887265 -3.21E-02
   473 Broy./Diag. 0.10E+00    5.4     0.02285608       -75.6694630822  3.30E-02
   474 Broy./Diag. 0.10E+00    5.4     0.01144462       -75.6791685692 -9.71E-03
   475 Broy./Diag. 0.10E+00    5.3     0.03221695       -75.6883889031 -9.22E-03
   476 Broy./Diag. 0.10E+00    5.4     0.03919120       -75.6983472747 -9.96E-03
   477 Broy./Diag. 0.10E+00    5.3     0.04233935       -75.7336945045 -3.53E-02
   478 Broy./Diag. 0.10E+00    5.4     0.05611443       -75.8471151349 -1.13E-01
   479 Broy./Diag. 0.10E+00    5.3     0.05904640       -75.8408943346  6.22E-03
   480 Broy./Diag. 0.10E+00    5.4     0.06090310       -75.8046634995  3.62E-02
   481 Broy./Diag. 0.10E+00    5.4     0.05559008       -75.7813441183  2.33E-02
   482 Broy./Diag. 0.10E+00    5.3     0.04981173       -75.7578641968  2.35E-02
   483 Broy./Diag. 0.10E+00    5.3     0.06390811       -75.7196040767  3.83E-02
   484 Broy./Diag. 0.10E+00    5.3     0.04557827       -75.7083678457  1.12E-02
   485 Broy./Diag. 0.10E+00    5.3     0.07586119       -75.6708953793  3.75E-02
   486 Broy./Diag. 0.10E+00    5.3     0.02940502       -75.6599151473  1.10E-02
   487 Broy./Diag. 0.10E+00    5.3     0.02758972       -75.7003560465 -4.04E-02
   488 Broy./Diag. 0.10E+00    5.4     0.04212334       -75.7544480403 -5.41E-02
   489 Broy./Diag. 0.10E+00    5.4     0.06512483       -75.7906655118 -3.62E-02
   490 Broy./Diag. 0.10E+00    5.4     0.07289530       -75.8250184813 -3.44E-02
   491 Broy./Diag. 0.10E+00    5.3     0.03616906       -75.8382605808 -1.32E-02
   492 Broy./Diag. 0.10E+00    5.4     0.03821411       -75.7981929914  4.01E-02
   493 Broy./Diag. 0.10E+00    5.4     0.00919467       -75.7587092028  3.95E-02
   494 Broy./Diag. 0.10E+00    5.3     0.03596857       -75.7655133190 -6.80E-03
   495 Broy./Diag. 0.10E+00    5.3     0.02614337       -75.7784514200 -1.29E-02
   496 Broy./Diag. 0.10E+00    5.3     0.02725788       -75.7805889832 -2.14E-03
   497 Broy./Diag. 0.10E+00    5.4     0.03275074       -75.7897213729 -9.13E-03
   498 Broy./Diag. 0.10E+00    5.4     0.02814730       -75.7841629039  5.56E-03
   499 Broy./Diag. 0.10E+00    5.3     0.02746633       -75.7775353480  6.63E-03
   500 Broy./Diag. 0.10E+00    5.4     0.02410207       -75.7537299070  2.38E-02

  Leaving inner SCF loop after reaching   500 steps.


  Electronic density on regular grids:         -8.6194289018        3.3805710982
  Core density on regular grids:               12.0000000000        0.0000000000
  Hard and soft densities (Lebedev):          -49.2807325771      -45.9001926668
  Total Rho_soft + Rho1_hard - Rho1_soft      -11.9999688122
  Total charge density (r-space):               0.0000311878
  Total Rho_soft + Rho0_soft (g-space):         0.0000310458

  Overlap energy of the core charge distribution:               0.00003125550742
  Self energy of the core charge distribution:                -58.22549323810243
  Core Hamiltonian energy:                                    -15.29349271515805
  Hartree energy:                                              16.72628846111009
  Exchange-correlation energy:                                 -2.78863257952276
  Hartree-Fock Exchange energy:                                -2.50224993669751

  GAPW| Exc from hard and soft atomic rho1:                    -5.14972687994920
  GAPW| local Eh = 1 center integrals:                         -8.52045427415847

  Total energy:                                               -75.75372990697092

 *******************************************************************************
 *   ___                                                                       *
 *  /   \                                                                      *
 * [ABORT]                                                                     *
 *  \___/     SCF run NOT converged. To continue the calculation regardless,   *
 *    |             please set the keyword IGNORE_CONVERGENCE_FAILURE.         *
 *  O/|                                                                        *
 * /| |                                                                        *
 * / \                                                            qs_scf.F:611 *
 *******************************************************************************


 ===== Routine Calling Stack ===== 

            3 scf_env_do_scf
            2 qs_energies
            1 CP2K

 *******************************************************************************
 *   ___                                                                       *
 *  /   \                                                                      *
 * [ABORT]                                                                     *
 *  \___/     SCF run NOT converged. To continue the calculation regardless,   *
 *    |             please set the keyword IGNORE_CONVERGENCE_FAILURE.         *
 *  O/|                                                                        *
 * /| |                                                                        *
 * / \                                                            qs_scf.F:611 *
 *******************************************************************************


 ===== Routine Calling Stack ===== 

            3 scf_env_do_scf
            2 qs_energies
            1 CP2K

 *******************************************************************************
 *   ___                                                                       *
 *  /   \                                                                      *
 * [ABORT]                                                                     *
 *  \___/     SCF run NOT converged. To continue the calculation regardless,   *
 *    |             please set the keyword IGNORE_CONVERGENCE_FAILURE.         *
 *  O/|                                                                        *
 * /| |                                                                        *
 * / \                                                            qs_scf.F:611 *
 *******************************************************************************


 ===== Routine Calling Stack ===== 

            3 scf_env_do_scf
            2 qs_energies
            1 CP2K

 *******************************************************************************
 *   ___                                                                       *
 *  /   \                                                                      *
 * [ABORT]                                                                     *
 *  \___/     SCF run NOT converged. To continue the calculation regardless,   *
 *    |             please set the keyword IGNORE_CONVERGENCE_FAILURE.         *
 *  O/|                                                                        *
 * /| |                                                                        *
 * / \                                                            qs_scf.F:611 *
 *******************************************************************************


 ===== Routine Calling Stack ===== 

            3 scf_env_do_scf
            2 qs_energies
            1 CP2K

 *******************************************************************************
 *   ___                                                                       *
 *  /   \                                                                      *
 * [ABORT]                                                                     *
 *  \___/     SCF run NOT converged. To continue the calculation regardless,   *
 *    |             please set the keyword IGNORE_CONVERGENCE_FAILURE.         *
 *  O/|                                                                        *
 * /| |                                                                        *
 * / \                                                            qs_scf.F:611 *
 *******************************************************************************


 ===== Routine Calling Stack ===== 

            3 scf_env_do_scf
            2 qs_energies
            1 CP2K

 *******************************************************************************
 *   ___                                                                       *
 *  /   \                                                                      *
 * [ABORT]                                                                     *
 *  \___/     SCF run NOT converged. To continue the calculation regardless,   *
 *    |             please set the keyword IGNORE_CONVERGENCE_FAILURE.         *
 *  O/|                                                                        *
 * /| |                                                                        *
 * / \                                                            qs_scf.F:611 *
 *******************************************************************************


 ===== Routine Calling Stack ===== 

            3 scf_env_do_scf
            2 qs_energies
            1 CP2K

 *******************************************************************************
 *   ___                                                                       *
 *  /   \                                                                      *
 * [ABORT]                                                                     *
 *  \___/     SCF run NOT converged. To continue the calculation regardless,   *
 *    |             please set the keyword IGNORE_CONVERGENCE_FAILURE.         *
 *  O/|                                                                        *
 * /| |                                                                        *
 * / \                                                            qs_scf.F:611 *
 *******************************************************************************


 ===== Routine Calling Stack ===== 

            3 scf_env_do_scf
            2 qs_energies
            1 CP2K

 *******************************************************************************
 *   ___                                                                       *
 *  /   \                                                                      *
 * [ABORT]                                                                     *
 *  \___/     SCF run NOT converged. To continue the calculation regardless,   *
 *    |             please set the keyword IGNORE_CONVERGENCE_FAILURE.         *
 *  O/|                                                                        *
 * /| |                                                                        *
 * / \                                                            qs_scf.F:611 *
 *******************************************************************************


 ===== Routine Calling Stack ===== 

            3 scf_env_do_scf
            2 qs_energies
            1 CP2K

 *******************************************************************************
 *   ___                                                                       *
 *  /   \                                                                      *
 * [ABORT]                                                                     *
 *  \___/     SCF run NOT converged. To continue the calculation regardless,   *
 *    |             please set the keyword IGNORE_CONVERGENCE_FAILURE.         *
 *  O/|                                                                        *
 * /| |                                                                        *
 * / \                                                            qs_scf.F:611 *
 *******************************************************************************


 ===== Routine Calling Stack ===== 

            3 scf_env_do_scf
            2 qs_energies
            1 CP2K

 *******************************************************************************
 *   ___                                                                       *
 *  /   \                                                                      *
 * [ABORT]                                                                     *
 *  \___/     SCF run NOT converged. To continue the calculation regardless,   *
 *    |             please set the keyword IGNORE_CONVERGENCE_FAILURE.         *
 *  O/|                                                                        *
 * /| |                                                                        *
 * / \                                                            qs_scf.F:611 *
 *******************************************************************************


 ===== Routine Calling Stack ===== 

            3 scf_env_do_scf
            2 qs_energies
            1 CP2K

 *******************************************************************************
 *   ___                                                                       *
 *  /   \                                                                      *
 * [ABORT]                                                                     *
 *  \___/     SCF run NOT converged. To continue the calculation regardless,   *
 *    |             please set the keyword IGNORE_CONVERGENCE_FAILURE.         *
 *  O/|                                                                        *
 * /| |                                                                        *
 * / \                                                            qs_scf.F:611 *
 *******************************************************************************


 ===== Routine Calling Stack ===== 

            3 scf_env_do_scf
            2 qs_energies
            1 CP2K

 *******************************************************************************
 *   ___                                                                       *
 *  /   \                                                                      *
 * [ABORT]                                                                     *
 *  \___/     SCF run NOT converged. To continue the calculation regardless,   *
 *    |             please set the keyword IGNORE_CONVERGENCE_FAILURE.         *
 *  O/|                                                                        *
 * /| |                                                                        *
 * / \                                                            qs_scf.F:611 *
 *******************************************************************************


 ===== Routine Calling Stack ===== 

            3 scf_env_do_scf
            2 qs_energies
            1 CP2K

 *******************************************************************************
 *   ___                                                                       *
 *  /   \                                                                      *
 * [ABORT]                                                                     *
 *  \___/     SCF run NOT converged. To continue the calculation regardless,   *
 *    |             please set the keyword IGNORE_CONVERGENCE_FAILURE.         *
 *  O/|                                                                        *
 * /| |                                                                        *
 * / \                                                            qs_scf.F:611 *
 *******************************************************************************


 ===== Routine Calling Stack ===== 

            3 scf_env_do_scf
            2 qs_energies
            1 CP2K
