 DBCSR| CPU Multiplication driver                                           BLAS (U)
 DBCSR| Multrec recursion limit                                              512 (U)
 DBCSR| Multiplication stack size                                           1000 (D)
 DBCSR| Maximum elements for images                                    UNLIMITED (U)
 DBCSR| Multiplicative factor virtual images                                   1 (U)
 DBCSR| Use multiplication densification                                       T (D)
 DBCSR| Multiplication size stacks                                             3 (U)
 DBCSR| Use memory pool for CPU allocation                                     F (U)
 DBCSR| Number of 3D layers                                               SINGLE (U)
 DBCSR| Use MPI memory allocation                                              F (U)
 DBCSR| Use RMA algorithm                                                      F (U)
 DBCSR| Use Communication thread                                               T (U)
 DBCSR| Communication thread load                                             75 (D)
 DBCSR| MPI: My process id                                                     0
 DBCSR| MPI: Number of processes                                              24
 DBCSR| OMP: Current number of threads                                         4
 DBCSR| OMP: Max number of threads                                             4
 DBCSR| Split modifier for TAS multiplication algorithm                  1.0E+00 (U)


  **** **** ******  **  PROGRAM STARTED AT               2025-03-07 03:40:19.741
 ***** ** ***  *** **   PROGRAM STARTED ON                          i01r05c06s01
 **    ****   ******    PROGRAM STARTED BY                               di38fab
 ***** **    ** ** **   PROGRAM PROCESS ID                                380650
  **** **  *******  **  PROGRAM STARTED IN /hppfs/scratch/04/di38fab/05_MOL/W4-1
                                           1+ALK/c2/DZVP

 CP2K| version string:                 CP2K version 2025.1 (Development Version)
 CP2K| source code revision number:                                  git:47877ba
 CP2K| cp2kflags: omp libint fftw3 libxc parallel scalapack max_contr=4         
 CP2K| is freely available from                            https://www.cp2k.org/
 CP2K| Program compiled at                          Thu Feb 20 16:00:34 CET 2025
 CP2K| Program compiled on                                               login04
 CP2K| Program compiled for                                        Supermuc-foss
 CP2K| Data directory path          /hppfs/work/pn36zo/di38fab/newcp2k/cp2k/data
 CP2K| Input file name                                                    GW.inp

 GLOBAL| Force Environment number                                              1
 GLOBAL| Basis set file name            /hppfs/scratch/04/di38fab/04_TMD/BASIS_A
 GLOBAL| Potential file name            /hppfs/work/pn36zo/di38fab/cp2k/data/ALL
 GLOBAL| MM Potential file name                                     MM_POTENTIAL
 GLOBAL| Coordinate file name                                      __STD_INPUT__
 GLOBAL| Method name                                                        CP2K
 GLOBAL| Project name                                                       MoS2
 GLOBAL| Run type                                                         ENERGY
 GLOBAL| FFT library                                                       FFTW3
 GLOBAL| Diagonalization library                                       ScaLAPACK
 GLOBAL| DGEMM library                                                      BLAS
 GLOBAL| Orthonormality check for eigenvectors                          DISABLED
 GLOBAL| Matrix multiplication library                                 ScaLAPACK
 GLOBAL| All-to-all communication in single precision                          F
 GLOBAL| FFTs using library dependent lengths                                  F
 GLOBAL| Grid backend                                                       AUTO
 GLOBAL| Global print level                                               MEDIUM
 GLOBAL| MPI I/O enabled                                                       T
 GLOBAL| Total number of message passing processes                            24
 GLOBAL| Number of threads for this process                                    4
 GLOBAL| This output is from process                                           0
 GLOBAL| OpenMP stack size per thread (OMP_STACKSIZE)                    default
 GLOBAL| CPU model name             Intel(R) Xeon(R) Platinum 8174 CPU @ 3.10GHz

 MEMORY| system memory details [Kb]
 MEMORY|                        rank 0           min           max       average
 MEMORY| MemTotal             98436660      98436660      98436664      98436662
 MEMORY| MemFree              83930040      83876936      83930040      83903488
 MEMORY| Buffers                     0             0             0             0
 MEMORY| Cached                2406292       2390364       2406292       2398328
 MEMORY| Slab                  1195580       1195580       1223192       1209386
 MEMORY| SReclaimable           265520        265520        270768        268144
 MEMORY| MemLikelyFree        86601852      86538068      86601852      86569960


 *** Fundamental physical constants (SI units) ***

 *** Literature: B. J. Mohr and B. N. Taylor,
 ***             CODATA recommended values of the fundamental physical
 ***             constants: 2006, Web Version 5.1
 ***             http://physics.nist.gov/constants

 Speed of light in vacuum [m/s]                             2.99792458000000E+08
 Magnetic constant or permeability of vacuum [N/A**2]       1.25663706143592E-06
 Electric constant or permittivity of vacuum [F/m]          8.85418781762039E-12
 Planck constant (h) [J*s]                                  6.62606896000000E-34
 Planck constant (h-bar) [J*s]                              1.05457162825177E-34
 Elementary charge [C]                                      1.60217648700000E-19
 Electron mass [kg]                                         9.10938215000000E-31
 Electron g factor [ ]                                     -2.00231930436220E+00
 Proton mass [kg]                                           1.67262163700000E-27
 Fine-structure constant                                    7.29735253760000E-03
 Rydberg constant [1/m]                                     1.09737315685270E+07
 Avogadro constant [1/mol]                                  6.02214179000000E+23
 Boltzmann constant [J/K]                                   1.38065040000000E-23
 Atomic mass unit [kg]                                      1.66053878200000E-27
 Bohr radius [m]                                            5.29177208590000E-11

 *** Conversion factors ***

 [u] -> [a.u.]                                              1.82288848426455E+03
 [Angstrom] -> [Bohr] = [a.u.]                              1.88972613288564E+00
 [a.u.] = [Bohr] -> [Angstrom]                              5.29177208590000E-01
 [a.u.] -> [s]                                              2.41888432650478E-17
 [a.u.] -> [fs]                                             2.41888432650478E-02
 [a.u.] -> [J]                                              4.35974393937059E-18
 [a.u.] -> [N]                                              8.23872205491840E-08
 [a.u.] -> [K]                                              3.15774647902944E+05
 [a.u.] -> [kJ/mol]                                         2.62549961709828E+03
 [a.u.] -> [kcal/mol]                                       6.27509468713739E+02
 [a.u.] -> [Pa]                                             2.94210107994716E+13
 [a.u.] -> [bar]                                            2.94210107994716E+08
 [a.u.] -> [atm]                                            2.90362800883016E+08
 [a.u.] -> [eV]                                             2.72113838565563E+01
 [a.u.] -> [Hz]                                             6.57968392072181E+15
 [a.u.] -> [1/cm] (wave numbers)                            2.19474631370540E+05
 [a.u./Bohr**2] -> [1/cm]                                   5.14048714338585E+03
 

 CELL_TOP| Volume [angstrom^3]:                                     27000.000000
 CELL_TOP| Vector a [angstrom    30.000     0.000     0.000   |a| =    30.000000
 CELL_TOP| Vector b [angstrom     0.000    30.000     0.000   |b| =    30.000000
 CELL_TOP| Vector c [angstrom     0.000     0.000    30.000   |c| =    30.000000
 CELL_TOP| Angle (b,c), alpha [degree]:                                90.000000
 CELL_TOP| Angle (a,c), beta  [degree]:                                90.000000
 CELL_TOP| Angle (a,b), gamma [degree]:                                90.000000
 CELL_TOP| Numerically orthorhombic:                                         YES
 CELL_TOP| Periodicity                                                      NONE

 GENERATE|  Preliminary Number of Bonds generated:                             0
 GENERATE|  Achieved consistency in connectivity generation.

 CELL| Volume [angstrom^3]:                                         27000.000000
 CELL| Vector a [angstrom]:      30.000     0.000     0.000   |a| =    30.000000
 CELL| Vector b [angstrom]:       0.000    30.000     0.000   |b| =    30.000000
 CELL| Vector c [angstrom]:       0.000     0.000    30.000   |c| =    30.000000
 CELL| Angle (b,c), alpha [degree]:                                    90.000000
 CELL| Angle (a,c), beta  [degree]:                                    90.000000
 CELL| Angle (a,b), gamma [degree]:                                    90.000000
 CELL| Numerically orthorhombic:                                             YES
 CELL| Periodicity                                                          NONE

 CELL_REF| Volume [angstrom^3]:                                     27000.000000
 CELL_REF| Vector a [angstrom    30.000     0.000     0.000   |a| =    30.000000
 CELL_REF| Vector b [angstrom     0.000    30.000     0.000   |b| =    30.000000
 CELL_REF| Vector c [angstrom     0.000     0.000    30.000   |c| =    30.000000
 CELL_REF| Angle (b,c), alpha [degree]:                                90.000000
 CELL_REF| Angle (a,c), beta  [degree]:                                90.000000
 CELL_REF| Angle (a,b), gamma [degree]:                                90.000000
 CELL_REF| Numerically orthorhombic:                                         YES
 CELL_REF| Periodicity                                                      NONE

 *******************************************************************************
 *******************************************************************************
 **                                                                           **
 **     #####                         ##              ##                      **
 **    ##   ##            ##          ##              ##                      **
 **   ##     ##                       ##            ######                    **
 **   ##     ##  ##   ##  ##   #####  ##  ##   ####   ##    #####    #####    **
 **   ##     ##  ##   ##  ##  ##      ## ##   ##      ##   ##   ##  ##   ##   **
 **   ##  ## ##  ##   ##  ##  ##      ####     ###    ##   ######   ######    **
 **    ##  ###   ##   ##  ##  ##      ## ##      ##   ##   ##       ##        **
 **     #######   #####   ##   #####  ##  ##  ####    ##    #####   ##        **
 **           ##                                                    ##        **
 **                                                                           **
 **                                                ... make the atoms dance   **
 **                                                                           **
 **            Copyright (C) by CP2K developers group (2000-2025)             **
 **                      J. Chem. Phys. 152, 194103 (2020)                    **
 **                                                                           **
 *******************************************************************************

 DFT| Spin restricted Kohn-Sham (RKS) calculation                            RKS
 DFT| Multiplicity                                                             1
 DFT| Number of spin states                                                    1
 DFT| Charge                                                                   0
 DFT| Self-interaction correction (SIC)                                       NO
 DFT| Cutoffs: density                                              1.000000E-10
 DFT|          gradient                                             1.000000E-10
 DFT|          tau                                                  1.000000E-10
 DFT|          cutoff_smoothing_range                               0.000000E+00
 DFT| XC density smoothing                                                  NONE
 DFT| XC derivatives                                                          PW

 FUNCTIONAL| PBE:
 FUNCTIONAL| J.P.Perdew, K.Burke, M.Ernzerhof, Phys. Rev. Letter, vol. 77, n 18,
 FUNCTIONAL|  pp. 3865-3868, (1996)sx=0.750sc=1.000{spin unpolarized}           


 QS| Method:                                                                GAPW
 QS| Density plane wave grid type                        NON-SPHERICAL FULLSPACE
 QS| Number of grid levels:                                                    4
 QS| Density cutoff [a.u.]:                                                250.0
 QS| Multi grid cutoff [a.u.]: 1) grid level                               250.0
 QS|                           2) grid level                                83.3
 QS|                           3) grid level                                27.8
 QS|                           4) grid level                                 9.3
 QS| Grid level progression factor:                                          3.0
 QS| Relative density cutoff [a.u.]:                                        50.0
 QS| Interaction thresholds: eps_pgf_orb:                                1.0E-12
 QS|                         eps_filter_matrix:                          0.0E+00
 QS|                         eps_core_charge:                            1.0E-14
 QS|                         eps_rho_gspace:                             1.0E-12
 QS|                         eps_rho_rspace:                             1.0E-12
 QS|                         eps_gvg_rspace:                             1.0E-06
 QS|                         eps_ppl:                                    1.0E-02
 QS|                         eps_ppnl:                                   1.0E-08
 QS| GAPW|      One center basis from orbital basis primitives
 QS| GAPW|                   eps_fit:                                    1.0E-04
 QS| GAPW|                   eps_iso:                                    1.0E-12
 QS| GAPW|                   eps_svd:                                    1.0E-08
 QS| GAPW|                   eps_cpc:                                    1.0E-12
 QS| GAPW|   atom-r-grid: quadrature:                                     GC_LOG
 QS| GAPW|      atom-s-grid:  max l :                                          6
 QS| GAPW|      max_l_rho0 :                                                   2


 ATOMIC KIND INFORMATION

  1. Atomic kind: C                                     Number of atoms:       2

     Orbital Basis Set                                        aug-DZVP-MOLOPT-ae

       Number of orbital shell sets:                                           2
       Number of orbital shells:                                              10
       Number of primitive Cartesian functions:                               13
       Number of Cartesian basis functions:                                   35
       Number of spherical basis functions:                                   30
       Norm type:                                                              2

       Normalised Cartesian orbitals:

                        Set   Shell   Orbital            Exponent    Coefficient

                          1       1    2px               0.050000       0.000000
                                                         0.096935       0.005344
                                                         0.300899       0.144116
                                                         0.937529       0.673511
                                                         4.145546       1.425967
                          1       1    2py               0.050000       0.000000
                                                         0.096935       0.005344
                                                         0.300899       0.144116
                                                         0.937529       0.673511
                                                         4.145546       1.425967
                          1       1    2pz               0.050000       0.000000
                                                         0.096935       0.005344
                                                         0.300899       0.144116
                                                         0.937529       0.673511
                                                         4.145546       1.425967

                          1       2    3px               0.050000       0.000000
                                                         0.096935       0.066903
                                                         0.300899       0.082631
                                                         0.937529      -0.414500
                                                         4.145546      -0.833488
                          1       2    3py               0.050000       0.000000
                                                         0.096935       0.066903
                                                         0.300899       0.082631
                                                         0.937529      -0.414500
                                                         4.145546      -0.833488
                          1       2    3pz               0.050000       0.000000
                                                         0.096935       0.066903
                                                         0.300899       0.082631
                                                         0.937529      -0.414500
                                                         4.145546      -0.833488

                          1       3    4px               0.050000       0.052477
                                                         0.096935      -0.149600
                                                         0.300899      -0.031452
                                                         0.937529       0.106528
                                                         4.145546       0.000000
                          1       3    4py               0.050000       0.052477
                                                         0.096935      -0.149600
                                                         0.300899      -0.031452
                                                         0.937529       0.106528
                                                         4.145546       0.000000
                          1       3    4pz               0.050000       0.052477
                                                         0.096935      -0.149600
                                                         0.300899      -0.031452
                                                         0.937529       0.106528
                                                         4.145546       0.000000

                          1       4    3dx2              0.050000       0.000000
                                                         0.096935       0.001258
                                                         0.300899       0.105504
                                                         0.937529       0.830801
                                                         4.145546       0.718979
                          1       4    3dxy              0.050000       0.000000
                                                         0.096935       0.002179
                                                         0.300899       0.182739
                                                         0.937529       1.438990
                                                         4.145546       1.245309
                          1       4    3dxz              0.050000       0.000000
                                                         0.096935       0.002179
                                                         0.300899       0.182739
                                                         0.937529       1.438990
                                                         4.145546       1.245309
                          1       4    3dy2              0.050000       0.000000
                                                         0.096935       0.001258
                                                         0.300899       0.105504
                                                         0.937529       0.830801
                                                         4.145546       0.718979
                          1       4    3dyz              0.050000       0.000000
                                                         0.096935       0.002179
                                                         0.300899       0.182739
                                                         0.937529       1.438990
                                                         4.145546       1.245309
                          1       4    3dz2              0.050000       0.000000
                                                         0.096935       0.001258
                                                         0.300899       0.105504
                                                         0.937529       0.830801
                                                         4.145546       0.718979

                          1       5    4dx2              0.050000      -0.011665
                                                         0.096935       0.057456
                                                         0.300899      -0.258169
                                                         0.937529       0.000000
                                                         4.145546       0.000000
                          1       5    4dxy              0.050000      -0.020204
                                                         0.096935       0.099516
                                                         0.300899      -0.447162
                                                         0.937529       0.000000
                                                         4.145546       0.000000
                          1       5    4dxz              0.050000      -0.020204
                                                         0.096935       0.099516
                                                         0.300899      -0.447162
                                                         0.937529       0.000000
                                                         4.145546       0.000000
                          1       5    4dy2              0.050000      -0.011665
                                                         0.096935       0.057456
                                                         0.300899      -0.258169
                                                         0.937529       0.000000
                                                         4.145546       0.000000
                          1       5    4dyz              0.050000      -0.020204
                                                         0.096935       0.099516
                                                         0.300899      -0.447162
                                                         0.937529       0.000000
                                                         4.145546       0.000000
                          1       5    4dz2              0.050000      -0.011665
                                                         0.096935       0.057456
                                                         0.300899      -0.258169
                                                         0.937529       0.000000
                                                         4.145546       0.000000

                          1       6    4fx3              0.050000      -0.000180
                                                         0.096935       0.008160
                                                         0.300899       0.004002
                                                         0.937529       0.000000
                                                         4.145546       0.000000
                          1       6    4fx2y             0.050000      -0.000402
                                                         0.096935       0.018246
                                                         0.300899       0.008949
                                                         0.937529       0.000000
                                                         4.145546       0.000000
                          1       6    4fx2z             0.050000      -0.000402
                                                         0.096935       0.018246
                                                         0.300899       0.008949
                                                         0.937529       0.000000
                                                         4.145546       0.000000
                          1       6    4fxy2             0.050000      -0.000402
                                                         0.096935       0.018246
                                                         0.300899       0.008949
                                                         0.937529       0.000000
                                                         4.145546       0.000000
                          1       6    4fxyz             0.050000      -0.000696
                                                         0.096935       0.031603
                                                         0.300899       0.015500
                                                         0.937529       0.000000
                                                         4.145546       0.000000
                          1       6    4fxz2             0.050000      -0.000402
                                                         0.096935       0.018246
                                                         0.300899       0.008949
                                                         0.937529       0.000000
                                                         4.145546       0.000000
                          1       6    4fy3              0.050000      -0.000180
                                                         0.096935       0.008160
                                                         0.300899       0.004002
                                                         0.937529       0.000000
                                                         4.145546       0.000000
                          1       6    4fy2z             0.050000      -0.000402
                                                         0.096935       0.018246
                                                         0.300899       0.008949
                                                         0.937529       0.000000
                                                         4.145546       0.000000
                          1       6    4fyz2             0.050000      -0.000402
                                                         0.096935       0.018246
                                                         0.300899       0.008949
                                                         0.937529       0.000000
                                                         4.145546       0.000000
                          1       6    4fz3              0.050000      -0.000180
                                                         0.096935       0.008160
                                                         0.300899       0.004002
                                                         0.937529       0.000000
                                                         4.145546       0.000000

                          2       1    1s                0.060000       0.000000
                                                         0.161278       0.024253
                                                         0.523772      -0.029268
                                                         3.176528       0.666384
                                                        10.501907       2.110671
                                                        40.805234       2.242010
                                                       186.270922       1.801845
                                                      1238.394264      -0.490536

                          2       2    2s                0.060000       0.000000
                                                         0.161278       0.080328
                                                         0.523772       0.279468
                                                         3.176528      -0.079506
                                                        10.501907      -0.033488
                                                        40.805234       0.350132
                                                       186.270922      -0.108171
                                                      1238.394264       0.147138

                          2       3    3s                0.060000       0.000000
                                                         0.161278       0.225687
                                                         0.523772      -0.382710
                                                         3.176528      -0.308205
                                                        10.501907      -0.974990
                                                        40.805234      -2.174132
                                                       186.270922       1.755878
                                                      1238.394264     -12.484315

                          2       4    4s                0.060000      -0.055653
                                                         0.161278      -0.019607
                                                         0.523772       0.500289
                                                         3.176528       0.067234
                                                        10.501907       0.000000
                                                        40.805234       0.000000
                                                       186.270922       0.000000
                                                      1238.394264       0.000000

     RI Auxiliary Basis Set             RI_aug-DZVP-MOLOPT-ae_N_RI_102_s_p_d_f_g

       Number of orbital shell sets:                                          24
       Number of orbital shells:                                              24
       Number of primitive Cartesian functions:                               24
       Number of Cartesian basis functions:                                  137
       Number of spherical basis functions:                                  102
       Norm type:                                                              2

       Normalised Cartesian orbitals:

                        Set   Shell   Orbital            Exponent    Coefficient

                          1       1    1s                0.176773       0.194299

                          2       1    8px               0.196807       0.186849
                          2       1    8py               0.196807       0.186849
                          2       1    8pz               0.196807       0.186849

                          3       1   18fx3              0.238963       0.058776
                          3       1   18fx2y             0.238963       0.131427
                          3       1   18fx2z             0.238963       0.131427
                          3       1   18fxy2             0.238963       0.131427
                          3       1   18fxyz             0.238963       0.227638
                          3       1   18fxz2             0.238963       0.131427
                          3       1   18fy3              0.238963       0.058776
                          3       1   18fy2z             0.238963       0.131427
                          3       1   18fyz2             0.238963       0.131427
                          3       1   18fz3              0.238963       0.058776

                          4       1    2s                0.282769       0.276365

                          5       1   13dx2              0.310173       0.212186
                          5       1   13dxy              0.310173       0.367516
                          5       1   13dxz              0.310173       0.367516
                          5       1   13dy2              0.310173       0.212186
                          5       1   13dyz              0.310173       0.367516
                          5       1   13dz2              0.310173       0.212186

                          6       1   22gx4              0.415454       0.099397
                          6       1   22gx3y             0.415454       0.262980
                          6       1   22gx3z             0.415454       0.262980
                          6       1   22gx2y2            0.415454       0.339506
                          6       1   22gx2yz            0.415454       0.588042
                          6       1   22gx2z2            0.415454       0.339506
                          6       1   22gxy3             0.415454       0.262980
                          6       1   22gxy2z            0.415454       0.588042
                          6       1   22gxyz2            0.415454       0.588042
                          6       1   22gxz3             0.415454       0.262980
                          6       1   22gy4              0.415454       0.099397
                          6       1   22gy3z             0.415454       0.262980
                          6       1   22gy2z2            0.415454       0.339506
                          6       1   22gyz3             0.415454       0.262980
                          6       1   22gz4              0.415454       0.099397

                          7       1   14dx2              0.475521       0.448184
                          7       1   14dxy              0.475521       0.776278
                          7       1   14dxz              0.475521       0.776278
                          7       1   14dy2              0.475521       0.448184
                          7       1   14dyz              0.475521       0.776278
                          7       1   14dz2              0.475521       0.448184

                          8       1    9px               0.478157       0.566765
                          8       1    9py               0.478157       0.566765
                          8       1    9pz               0.478157       0.566765

                          9       1   19fx3              0.615924       0.494755
                          9       1   19fx2y             0.615924       1.106306
                          9       1   19fx2z             0.615924       1.106306
                          9       1   19fxy2             0.615924       1.106306
                          9       1   19fxyz             0.615924       1.916178
                          9       1   19fxz2             0.615924       1.106306
                          9       1   19fy3              0.615924       0.494755
                          9       1   19fy2z             0.615924       1.106306
                          9       1   19fyz2             0.615924       1.106306
                          9       1   19fz3              0.615924       0.494755

                         10       1   23gx4              0.774118       0.550370
                         10       1   23gx3y             0.774118       1.456141
                         10       1   23gx3z             0.774118       1.456141
                         10       1   23gx2y2            0.774118       1.879871
                         10       1   23gx2yz            0.774118       3.256031
                         10       1   23gx2z2            0.774118       1.879871
                         10       1   23gxy3             0.774118       1.456141
                         10       1   23gxy2z            0.774118       3.256031
                         10       1   23gxyz2            0.774118       3.256031
                         10       1   23gxz3             0.774118       1.456141
                         10       1   23gy4              0.774118       0.550370
                         10       1   23gy3z             0.774118       1.456141
                         10       1   23gy2z2            0.774118       1.879871
                         10       1   23gyz3             0.774118       1.456141
                         10       1   23gz4              0.774118       0.550370

                         11       1    3s                0.856620       0.634602

                         12       1   15dx2              0.960745       1.534525
                         12       1   15dxy              0.960745       2.657876
                         12       1   15dxz              0.960745       2.657876
                         12       1   15dy2              0.960745       1.534525
                         12       1   15dyz              0.960745       2.657876
                         12       1   15dz2              0.960745       1.534525

                         13       1   10px               1.162821       1.721200
                         13       1   10py               1.162821       1.721200
                         13       1   10pz               1.162821       1.721200

                         14       1   20fx3              1.214659       2.280218
                         14       1   20fx2y             1.214659       5.098724
                         14       1   20fx2z             1.214659       5.098724
                         14       1   20fxy2             1.214659       5.098724
                         14       1   20fxyz             1.214659       8.831248
                         14       1   20fxz2             1.214659       5.098724
                         14       1   20fy3              1.214659       2.280218
                         14       1   20fy2z             1.214659       5.098724
                         14       1   20fyz2             1.214659       5.098724
                         14       1   20fz3              1.214659       2.280218

                         15       1   24gx4              1.356232       2.572490
                         15       1   24gx3y             1.356232       6.806169
                         15       1   24gx3z             1.356232       6.806169
                         15       1   24gx2y2            1.356232       8.786727
                         15       1   24gx2yz            1.356232      15.219057
                         15       1   24gx2z2            1.356232       8.786727
                         15       1   24gxy3             1.356232       6.806169
                         15       1   24gxy2z            1.356232      15.219057
                         15       1   24gxyz2            1.356232      15.219057
                         15       1   24gxz3             1.356232       6.806169
                         15       1   24gy4              1.356232       2.572490
                         15       1   24gy3z             1.356232       6.806169
                         15       1   24gy2z2            1.356232       8.786727
                         15       1   24gyz3             1.356232       6.806169
                         15       1   24gz4              1.356232       2.572490

                         16       1   16dx2              1.921522       5.161655
                         16       1   16dxy              1.921522       8.940249
                         16       1   16dxz              1.921522       8.940249
                         16       1   16dy2              1.921522       5.161655
                         16       1   16dyz              1.921522       8.940249
                         16       1   16dz2              1.921522       5.161655

                         17       1   21fx3              2.377719      10.335118
                         17       1   21fx2y             2.377719      23.110027
                         17       1   21fx2z             2.377719      23.110027
                         17       1   21fxy2             2.377719      23.110027
                         17       1   21fxyz             2.377719      40.027741
                         17       1   21fxz2             2.377719      23.110027
                         17       1   21fy3              2.377719      10.335118
                         17       1   21fy2z             2.377719      23.110027
                         17       1   21fyz2             2.377719      23.110027
                         17       1   21fz3              2.377719      10.335118

                         18       1    4s                2.987161       1.619400

                         19       1   17dx2              4.345203      21.524201
                         19       1   17dxy              4.345203      37.281010
                         19       1   17dxz              4.345203      37.281010
                         19       1   17dy2              4.345203      21.524201
                         19       1   17dyz              4.345203      37.281010
                         19       1   17dz2              4.345203      21.524201

                         20       1   11px               4.473684       9.274098
                         20       1   11py               4.473684       9.274098
                         20       1   11pz               4.473684       9.274098

                         21       1    5s                9.158863       3.752246

                         22       1   12px              16.195512      46.310923
                         22       1   12py              16.195512      46.310923
                         22       1   12pz              16.195512      46.310923

                         23       1    6s               27.492688       8.557029

                         24       1    7s               82.168156      19.450813

       Atomic covalent radius [Angstrom]:                                  0.770

       Atomic van der Waals radius [Angstrom]:                             1.700

     The atoms of this atomic kind are PAW atoms (GAPW):
       Hard Gaussian function radius:                                      1.512
       Rho0 radius:                                                        1.512
       Maximum GTO radius used for PAW projector construction:            24.566

     GAPW Soft Basis Set                                 aug-DZVP-MOLOPT-ae_soft

       Number of orbital shell sets:                                           2
       Number of orbital shells:                                              10
       Number of primitive Cartesian functions:                                9
       Number of Cartesian basis functions:                                   35
       Number of spherical basis functions:                                   30
       Norm type:                                                              2

       Normalised Cartesian orbitals:

                        Set   Shell   Orbital            Exponent    Coefficient

                          1       1    2px               0.050000       0.000000
                                                         0.096935       0.005344
                                                         0.300899       0.144116
                                                         0.937529       0.673511
                                                         4.145546       1.425967
                          1       1    2py               0.050000       0.000000
                                                         0.096935       0.005344
                                                         0.300899       0.144116
                                                         0.937529       0.673511
                                                         4.145546       1.425967
                          1       1    2pz               0.050000       0.000000
                                                         0.096935       0.005344
                                                         0.300899       0.144116
                                                         0.937529       0.673511
                                                         4.145546       1.425967

                          1       2    3px               0.050000       0.000000
                                                         0.096935       0.066903
                                                         0.300899       0.082631
                                                         0.937529      -0.414500
                                                         4.145546      -0.833488
                          1       2    3py               0.050000       0.000000
                                                         0.096935       0.066903
                                                         0.300899       0.082631
                                                         0.937529      -0.414500
                                                         4.145546      -0.833488
                          1       2    3pz               0.050000       0.000000
                                                         0.096935       0.066903
                                                         0.300899       0.082631
                                                         0.937529      -0.414500
                                                         4.145546      -0.833488

                          1       3    4px               0.050000       0.052477
                                                         0.096935      -0.149600
                                                         0.300899      -0.031452
                                                         0.937529       0.106528
                                                         4.145546       0.000000
                          1       3    4py               0.050000       0.052477
                                                         0.096935      -0.149600
                                                         0.300899      -0.031452
                                                         0.937529       0.106528
                                                         4.145546       0.000000
                          1       3    4pz               0.050000       0.052477
                                                         0.096935      -0.149600
                                                         0.300899      -0.031452
                                                         0.937529       0.106528
                                                         4.145546       0.000000

                          1       4    3dx2              0.050000       0.000000
                                                         0.096935       0.001258
                                                         0.300899       0.105504
                                                         0.937529       0.830801
                                                         4.145546       0.718979
                          1       4    3dxy              0.050000       0.000000
                                                         0.096935       0.002179
                                                         0.300899       0.182739
                                                         0.937529       1.438990
                                                         4.145546       1.245309
                          1       4    3dxz              0.050000       0.000000
                                                         0.096935       0.002179
                                                         0.300899       0.182739
                                                         0.937529       1.438990
                                                         4.145546       1.245309
                          1       4    3dy2              0.050000       0.000000
                                                         0.096935       0.001258
                                                         0.300899       0.105504
                                                         0.937529       0.830801
                                                         4.145546       0.718979
                          1       4    3dyz              0.050000       0.000000
                                                         0.096935       0.002179
                                                         0.300899       0.182739
                                                         0.937529       1.438990
                                                         4.145546       1.245309
                          1       4    3dz2              0.050000       0.000000
                                                         0.096935       0.001258
                                                         0.300899       0.105504
                                                         0.937529       0.830801
                                                         4.145546       0.718979

                          1       5    4dx2              0.050000      -0.011665
                                                         0.096935       0.057456
                                                         0.300899      -0.258169
                                                         0.937529       0.000000
                                                         4.145546       0.000000
                          1       5    4dxy              0.050000      -0.020204
                                                         0.096935       0.099516
                                                         0.300899      -0.447162
                                                         0.937529       0.000000
                                                         4.145546       0.000000
                          1       5    4dxz              0.050000      -0.020204
                                                         0.096935       0.099516
                                                         0.300899      -0.447162
                                                         0.937529       0.000000
                                                         4.145546       0.000000
                          1       5    4dy2              0.050000      -0.011665
                                                         0.096935       0.057456
                                                         0.300899      -0.258169
                                                         0.937529       0.000000
                                                         4.145546       0.000000
                          1       5    4dyz              0.050000      -0.020204
                                                         0.096935       0.099516
                                                         0.300899      -0.447162
                                                         0.937529       0.000000
                                                         4.145546       0.000000
                          1       5    4dz2              0.050000      -0.011665
                                                         0.096935       0.057456
                                                         0.300899      -0.258169
                                                         0.937529       0.000000
                                                         4.145546       0.000000

                          1       6    4fx3              0.050000      -0.000180
                                                         0.096935       0.008160
                                                         0.300899       0.004002
                                                         0.937529       0.000000
                                                         4.145546       0.000000
                          1       6    4fx2y             0.050000      -0.000402
                                                         0.096935       0.018246
                                                         0.300899       0.008949
                                                         0.937529       0.000000
                                                         4.145546       0.000000
                          1       6    4fx2z             0.050000      -0.000402
                                                         0.096935       0.018246
                                                         0.300899       0.008949
                                                         0.937529       0.000000
                                                         4.145546       0.000000
                          1       6    4fxy2             0.050000      -0.000402
                                                         0.096935       0.018246
                                                         0.300899       0.008949
                                                         0.937529       0.000000
                                                         4.145546       0.000000
                          1       6    4fxyz             0.050000      -0.000696
                                                         0.096935       0.031603
                                                         0.300899       0.015500
                                                         0.937529       0.000000
                                                         4.145546       0.000000
                          1       6    4fxz2             0.050000      -0.000402
                                                         0.096935       0.018246
                                                         0.300899       0.008949
                                                         0.937529       0.000000
                                                         4.145546       0.000000
                          1       6    4fy3              0.050000      -0.000180
                                                         0.096935       0.008160
                                                         0.300899       0.004002
                                                         0.937529       0.000000
                                                         4.145546       0.000000
                          1       6    4fy2z             0.050000      -0.000402
                                                         0.096935       0.018246
                                                         0.300899       0.008949
                                                         0.937529       0.000000
                                                         4.145546       0.000000
                          1       6    4fyz2             0.050000      -0.000402
                                                         0.096935       0.018246
                                                         0.300899       0.008949
                                                         0.937529       0.000000
                                                         4.145546       0.000000
                          1       6    4fz3              0.050000      -0.000180
                                                         0.096935       0.008160
                                                         0.300899       0.004002
                                                         0.937529       0.000000
                                                         4.145546       0.000000

                          2       1    1s                0.060000       0.000000
                                                         0.161278       0.024253
                                                         0.523772      -0.029268
                                                         3.176528       0.666384

                          2       2    2s                0.060000       0.000000
                                                         0.161278       0.080328
                                                         0.523772       0.279468
                                                         3.176528      -0.079506

                          2       3    3s                0.060000       0.000000
                                                         0.161278       0.225687
                                                         0.523772      -0.382710
                                                         3.176528      -0.308205

                          2       4    4s                0.060000      -0.055653
                                                         0.161278      -0.019607
                                                         0.523772       0.500289
                                                         3.176528       0.067234

     AE Potential information for                                            ALL

       Description:                                       All-electron potential
                                          Krack, Parrinello, PCCP 2, 2105 (2000)

       Gaussian exponent of the core charge distribution:               4.109048
       Electronic configuration (s p d ...):                           4   2   0


 MOLECULE KIND INFORMATION


 All atoms are their own molecule, skipping detailed information


 TOTAL NUMBERS AND MAXIMUM NUMBERS

  Total number of            - Atomic kinds:                                   1
                             - Atoms:                                          2
                             - Shell sets:                                     4
                             - Shells:                                        20
                             - Primitive Cartesian functions:                 26
                             - Cartesian basis functions:                     70
                             - Spherical basis functions:                     60

  Maximum angular momentum of the orbital basis functions:                     3


 MODULE QUICKSTEP: ATOMIC COORDINATES IN ANGSTROM

   Atom Kind Element         X             Y             Z       Z(eff)     Mass
      1    1 C     6     15.620000     15.000000     15.000000   6.0000  12.0107
      2    1 C     6     14.380000     15.000000     15.000000   6.0000  12.0107



 SCF PARAMETERS         Density guess:                                    ATOMIC
                        --------------------------------------------------------
                        max_scf:                                             500
                        max_scf_history:                                       0
                        max_diis:                                              4
                        --------------------------------------------------------
                        eps_scf:                                        1.00E-06
                        eps_scf_history:                                0.00E+00
                        eps_diis:                                       1.00E-01
                        eps_eigval:                                     1.00E-05
                        --------------------------------------------------------
                        level_shift [a.u.]:                             0.000000
                        added MOs                                        54    0
                        --------------------------------------------------------
                        Mixing method:                            BROYDEN_MIXING
                                                charge density mixing in g-space
                        --------------------------------------------------------
                        No outer SCF

 PW_GRID| Information for grid number                                          1
 PW_GRID| Grid distributed over                                    24 processors
 PW_GRID| Real space group dimensions                                    24    1
 PW_GRID| the grid is blocked:                                                NO
 PW_GRID| Cutoff [a.u.]                                                    250.0
 PW_GRID| spherical cutoff:                                                   NO
 PW_GRID|   Bounds   1           -202     202                Points:         405
 PW_GRID|   Bounds   2           -202     202                Points:         405
 PW_GRID|   Bounds   3           -202     202                Points:         405
 PW_GRID| Volume element (a.u.^3)  0.2743E-02     Volume (a.u.^3)    182205.0337
 PW_GRID| Grid span                                                    FULLSPACE
 PW_GRID|   Distribution                         Average         Max         Min
 PW_GRID|   G-Vectors                          2767921.9     2768175     2767770
 PW_GRID|   G-Rays                                6834.4        6835        6834
 PW_GRID|   Real Space Points                  2767921.9     2788425     2624400

 PW_GRID| Information for grid number                                          2
 PW_GRID| Number of the reference grid                                         1
 PW_GRID| Grid distributed over                                    24 processors
 PW_GRID| Real space group dimensions                                    24    1
 PW_GRID| the grid is blocked:                                                NO
 PW_GRID| Cutoff [a.u.]                                                     83.3
 PW_GRID| spherical cutoff:                                                   NO
 PW_GRID|   Bounds   1           -120     119                Points:         240
 PW_GRID|   Bounds   2           -120     119                Points:         240
 PW_GRID|   Bounds   3           -120     119                Points:         240
 PW_GRID| Volume element (a.u.^3)  0.1318E-01     Volume (a.u.^3)    182205.0337
 PW_GRID| Grid span                                                    FULLSPACE
 PW_GRID|   Distribution                         Average         Max         Min
 PW_GRID|   G-Vectors                           576000.0      576240      575760
 PW_GRID|   G-Rays                                2400.0        2401        2399
 PW_GRID|   Real Space Points                   576000.0      576000      576000

 PW_GRID| Information for grid number                                          3
 PW_GRID| Number of the reference grid                                         1
 PW_GRID| Grid distributed over                                    24 processors
 PW_GRID| Real space group dimensions                                    24    1
 PW_GRID| the grid is blocked:                                                NO
 PW_GRID| Cutoff [a.u.]                                                     27.8
 PW_GRID| spherical cutoff:                                                   NO
 PW_GRID|   Bounds   1            -67      67                Points:         135
 PW_GRID|   Bounds   2            -67      67                Points:         135
 PW_GRID|   Bounds   3            -67      67                Points:         135
 PW_GRID| Volume element (a.u.^3)  0.7406E-01     Volume (a.u.^3)    182205.0337
 PW_GRID| Grid span                                                    FULLSPACE
 PW_GRID|   Distribution                         Average         Max         Min
 PW_GRID|   G-Vectors                           102515.6      102735      102330
 PW_GRID|   G-Rays                                 759.4         761         758
 PW_GRID|   Real Space Points                   102515.6      109350       91125

 PW_GRID| Information for grid number                                          4
 PW_GRID| Number of the reference grid                                         1
 PW_GRID| Grid distributed over                                    24 processors
 PW_GRID| Real space group dimensions                                    24    1
 PW_GRID| the grid is blocked:                                                NO
 PW_GRID| Cutoff [a.u.]                                                      9.3
 PW_GRID| spherical cutoff:                                                   NO
 PW_GRID|   Bounds   1            -40      39                Points:          80
 PW_GRID|   Bounds   2            -40      39                Points:          80
 PW_GRID|   Bounds   3            -40      39                Points:          80
 PW_GRID| Volume element (a.u.^3)  0.3559         Volume (a.u.^3)    182205.0337
 PW_GRID| Grid span                                                    FULLSPACE
 PW_GRID|   Distribution                         Average         Max         Min
 PW_GRID|   G-Vectors                            21333.3       21360       21280
 PW_GRID|   G-Rays                                 266.7         267         266
 PW_GRID|   Real Space Points                    21333.3       25600       19200

 POISSON| Solver                                                         WAVELET
 POISSON| Wavelet| Scaling function                                           40
 POISSON| Periodicity                                                       NONE

 RS_GRID| Information for grid number                                          1
 RS_GRID|   Bounds   1           -202     202                Points:         405
 RS_GRID|   Bounds   2           -202     202                Points:         405
 RS_GRID|   Bounds   3           -202     202                Points:         405
 RS_GRID| Real space distribution over                                  4 groups
 RS_GRID| Real space distribution along direction                              2
 RS_GRID| Border size                                                         35
 RS_GRID| Real space distribution over                                  6 groups
 RS_GRID| Real space distribution along direction                              3
 RS_GRID| Border size                                                         35
 RS_GRID|   Distribution                         Average         Max         Min
 RS_GRID|   Planes                                 171.2         172         171
 RS_GRID|   Distribution                         Average         Max         Min
 RS_GRID|   Planes                                 137.5         138         137

 RS_GRID| Information for grid number                                          2
 RS_GRID|   Bounds   1           -120     119                Points:         240
 RS_GRID|   Bounds   2           -120     119                Points:         240
 RS_GRID|   Bounds   3           -120     119                Points:         240
 RS_GRID| Real space distribution over                                  4 groups
 RS_GRID| Real space distribution along direction                              2
 RS_GRID| Border size                                                         38
 RS_GRID| Real space distribution over                                  6 groups
 RS_GRID| Real space distribution along direction                              3
 RS_GRID| Border size                                                         38
 RS_GRID|   Distribution                         Average         Max         Min
 RS_GRID|   Planes                                 136.0         136         136
 RS_GRID|   Distribution                         Average         Max         Min
 RS_GRID|   Planes                                 116.0         116         116

 RS_GRID| Information for grid number                                          3
 RS_GRID|   Bounds   1            -67      67                Points:         135
 RS_GRID|   Bounds   2            -67      67                Points:         135
 RS_GRID|   Bounds   3            -67      67                Points:         135
 RS_GRID| Real space fully replicated
 RS_GRID| Group size                                                           1

 RS_GRID| Information for grid number                                          4
 RS_GRID|   Bounds   1            -40      39                Points:          80
 RS_GRID|   Bounds   2            -40      39                Points:          80
 RS_GRID|   Bounds   3            -40      39                Points:          80
 RS_GRID| Real space fully replicated
 RS_GRID| Group size                                                           1

  HFX_INFO| Replica ID:                                                        1
  HFX_INFO| FRACTION:                                               0.2500000000
  HFX_INFO| Interaction Potential:                                       COULOMB
  HFX_INFO| EPS_SCHWARZ:                                                 1.0E-10
  HFX_INFO| EPS_SCHWARZ_FORCES                                           1.0E-08
  HFX_INFO| EPS_STORAGE_SCALING:                                         1.0E+00
  HFX_INFO| NBINS:                                                            64
  HFX_INFO| BLOCK_SIZE:                                                        1
  HFX_INFO| Number of periodic shells considered:                           NONE
  HFX_INFO| Number of periodic cells considered:                            NONE

 
 RI-RPA| using GPW style
 

 OVERLAP MATRIX CONDITION NUMBER
 1-Norm Condition Number (Estimate)
   CN : |A|*|A^-1|:  5.324E+000 *  8.956E+002   = 4.769E+003  Log(1-CN):  3.6784
 1-Norm and 2-Norm Condition Numbers using Diagonalization
   CN : |A|*|A^-1|:  5.324E+000 *  8.956E+002   = 4.769E+003  Log(1-CN):  3.6784
   CN : max/min ev:  3.467E+000 /  1.709E-003   = 2.029E+003  Log(2-CN):  3.3072

 Number of electrons:                                                         12
 Number of occupied orbitals:                                                  6
 Number of molecular orbitals:                                                60

 Number of orbital functions:                                                 60
 Number of independent orbital functions:                                     60

 Extrapolation method: initial_guess

 Atomic guess: The first density matrix is obtained in terms of atomic orbitals
               and electronic configurations assigned to each atomic kind

 Guess for atomic kind: C

 Electronic structure
    Total number of core electrons                                          0.00
    Total number of valence electrons                                       6.00
    Total number of electrons                                               6.00
    Multiplicity                                                   not specified
    S      2.00  2.00
    P      2.00


 *******************************************************************************
                  Iteration          Convergence                     Energy [au]
 *******************************************************************************
                          1        0.133902                     -37.363061759844
                          2        0.102325                     -37.368472442706
                          3        0.860737E-03                 -37.376215693871
                          4        0.849047E-04                 -37.376216293501
                          5        0.219397E-06                 -37.376216298714

 Energy components [Hartree]           Total Energy ::          -37.376216298714
                                        Band Energy ::          -21.245708131868
                                     Kinetic Energy ::           37.464666877769
                                   Potential Energy ::          -74.840883176484
                                      Virial (-V/T) ::            1.997639093406
                                        Core Energy ::          -50.271057779086
                                          XC Energy ::           -4.736056292831
                                     Coulomb Energy ::           17.630897773203

 Orbital energies  State     L     Occupation   Energy[a.u.]          Energy[eV]

                       1     0          2.000      -9.941022         -270.508975
                       2     0          2.000      -0.490185          -13.338601

                       1     1          2.000      -0.191647           -5.214984


 Total Electron Density at R=0:                                       116.283880
 Re-scaling the density matrix to get the right number of electrons
                  # Electrons              Trace(P)               Scaling factor
                           12                12.000                        1.000


 SCF WAVEFUNCTION OPTIMIZATION

  Step     Update method      Time    Convergence         Total energy    Change
  ------------------------------------------------------------------------------

  HFX_MEM_INFO| Est. max. program size before HFX [MiB]:                    2161
  HFX_MEM_INFO| Number of cart. primitive ERI's calculated:            674513758
  HFX_MEM_INFO| Number of sph. ERI's calculated:                         4860000
  HFX_MEM_INFO| Number of sph. ERI's stored in-core:                     4860000
  HFX_MEM_INFO| Number of sph. ERI's stored on disk:                           0
  HFX_MEM_INFO| Number of sph. ERI's calculated on the fly:                    0
  HFX_MEM_INFO| Total memory consumption ERI's RAM [MiB]:                     20
  HFX_MEM_INFO| Whereof max-vals [MiB]:                                        1
  HFX_MEM_INFO| Total compression factor ERI's RAM:                         1.87
  HFX_MEM_INFO| Total memory consumption ERI's disk [MiB]:                     0
  HFX_MEM_INFO| Total compression factor ERI's disk:                        0.00
  HFX_MEM_INFO| Size of density/Fock matrix [MiB]:                             0
  HFX_MEM_INFO| Size of buffers [MiB]:                                        13
  HFX_MEM_INFO| Est. max. program size after HFX  [MiB]:                    2702

     1 NoMix/Diag. 0.10E+00   19.2     1.31515393       -75.9310665379 -7.59E+01
     2 Broy./Diag. 0.10E+00    5.0     0.03786267       -75.1120750673  8.19E-01
     3 Broy./Diag. 0.10E+00    5.0     0.03612222       -74.7722713269  3.40E-01
     4 Broy./Diag. 0.10E+00    5.0     0.11297437       -75.1044644284 -3.32E-01
     5 Broy./Diag. 0.10E+00    5.0     0.03035415       -75.5941547410 -4.90E-01
     6 Broy./Diag. 0.10E+00    5.1     0.00543255       -75.6729189492 -7.88E-02
     7 Broy./Diag. 0.10E+00    5.1     0.00530417       -75.6657737796  7.15E-03
     8 Broy./Diag. 0.10E+00    5.4     0.00091954       -75.6769877144 -1.12E-02
     9 Broy./Diag. 0.10E+00    5.4     0.00183013       -75.6710913973  5.90E-03
    10 Broy./Diag. 0.10E+00    5.6     0.00300336       -75.6795459025 -8.45E-03
    11 Broy./Diag. 0.10E+00    5.6     0.00295092       -75.6968052718 -1.73E-02
    12 Broy./Diag. 0.10E+00    5.6     0.00332821       -75.7153868303 -1.86E-02
    13 Broy./Diag. 0.10E+00    5.7     0.00072513       -75.7284432109 -1.31E-02
    14 Broy./Diag. 0.10E+00    5.6     0.00205284       -75.7188822037  9.56E-03
    15 Broy./Diag. 0.10E+00    5.6     0.00034867       -75.7128604857  6.02E-03
    16 Broy./Diag. 0.10E+00    5.6     0.00027211       -75.7151758074 -2.32E-03
    17 Broy./Diag. 0.10E+00    5.7     0.00070564       -75.7169562185 -1.78E-03
    18 Broy./Diag. 0.10E+00    5.6     0.00105219       -75.7214948996 -4.54E-03
    19 Broy./Diag. 0.10E+00    5.5     0.00013553       -75.7250245881 -3.53E-03
    20 Broy./Diag. 0.10E+00    5.4     0.00020360       -75.7246290513  3.96E-04
    21 Broy./Diag. 0.10E+00    5.4     0.00009516       -75.7239210239  7.08E-04
    22 Broy./Diag. 0.10E+00    5.4     0.00044873       -75.7215842220  2.34E-03
    23 Broy./Diag. 0.10E+00    5.4     0.00014110       -75.7204773988  1.11E-03
    24 Broy./Diag. 0.10E+00    5.4     0.00023403       -75.7217864511 -1.31E-03
    25 Broy./Diag. 0.10E+00    5.4     0.00005883       -75.7224017083 -6.15E-04
    26 Broy./Diag. 0.10E+00    5.5     0.00005303       -75.7221282348  2.73E-04
    27 Broy./Diag. 0.10E+00    5.6     0.00008431       -75.7224064730 -2.78E-04
    28 Broy./Diag. 0.10E+00    5.7     0.00003197       -75.7227349638 -3.28E-04
    29 Broy./Diag. 0.10E+00    5.7     0.00006767       -75.7229907597 -2.56E-04
    30 Broy./Diag. 0.10E+00    5.7     0.00008337       -75.7230493112 -5.86E-05
    31 Broy./Diag. 0.10E+00    5.6     0.00014982       -75.7226397059  4.10E-04
    32 Broy./Diag. 0.10E+00    5.6     0.00006529       -75.7224393695  2.00E-04
    33 Broy./Diag. 0.10E+00    5.6     0.00005158       -75.7225991866 -1.60E-04
    34 Broy./Diag. 0.10E+00    5.5     0.00003622       -75.7225949121  4.27E-06
    35 Broy./Diag. 0.10E+00    5.4     0.00006477       -75.7224729370  1.22E-04
    36 Broy./Diag. 0.10E+00    5.4     0.00005221       -75.7223900558  8.29E-05
    37 Broy./Diag. 0.10E+00    5.4     0.00003994       -75.7223848358  5.22E-06
    38 Broy./Diag. 0.10E+00    5.3     0.00002994       -75.7223827501  2.09E-06
    39 Broy./Diag. 0.10E+00    5.3     0.00003940       -75.7224276032 -4.49E-05
    40 Broy./Diag. 0.10E+00    5.4     0.00003535       -75.7224575469 -2.99E-05
    41 Broy./Diag. 0.10E+00    5.6     0.00004681       -75.7224652134 -7.67E-06
    42 Broy./Diag. 0.10E+00    5.6     0.00003228       -75.7224360972  2.91E-05
    43 Broy./Diag. 0.10E+00    5.6     0.00002854       -75.7223972399  3.89E-05
    44 Broy./Diag. 0.10E+00    5.7     0.00003228       -75.7223686075  2.86E-05
    45 Broy./Diag. 0.10E+00    5.8     0.00003689       -75.7224108826 -4.23E-05
    46 Broy./Diag. 0.10E+00    5.6     0.00003119       -75.7224747267 -6.38E-05
    47 Broy./Diag. 0.10E+00    5.6     0.00003067       -75.7224322894  4.24E-05
    48 Broy./Diag. 0.10E+00    5.6     0.00002724       -75.7224044776  2.78E-05
    49 Broy./Diag. 0.10E+00    5.6     0.00004392       -75.7225234794 -1.19E-04
    50 Broy./Diag. 0.10E+00    5.6     0.00004804       -75.7225816119 -5.81E-05
    51 Broy./Diag. 0.10E+00    5.4     0.00005541       -75.7225455885  3.60E-05
    52 Broy./Diag. 0.10E+00    5.4     0.00005435       -75.7225190467  2.65E-05
    53 Broy./Diag. 0.10E+00    5.4     0.00005166       -75.7225159863  3.06E-06
    54 Broy./Diag. 0.10E+00    5.4     0.00005738       -75.7225054763  1.05E-05
    55 Broy./Diag. 0.10E+00    5.5     0.00005694       -75.7224992548  6.22E-06
    56 Broy./Diag. 0.10E+00    5.7     0.00004790       -75.7224995057 -2.51E-07
    57 Broy./Diag. 0.10E+00    5.7     0.00005171       -75.7225033565 -3.85E-06
    58 Broy./Diag. 0.10E+00    5.8     0.00005211       -75.7225187637 -1.54E-05
    59 Broy./Diag. 0.10E+00    5.7     0.00004807       -75.7225275638 -8.80E-06
    60 Broy./Diag. 0.10E+00    5.7     0.00005091       -75.7225242006  3.36E-06
    61 Broy./Diag. 0.10E+00    5.6     0.00004676       -75.7225299668 -5.77E-06
    62 Broy./Diag. 0.10E+00    5.5     0.00004304       -75.7225313468 -1.38E-06
    63 Broy./Diag. 0.10E+00    5.4     0.00004463       -75.7225300668  1.28E-06
[...]
   418 Broy./Diag. 0.10E+00    5.6     0.02423664       -75.6628010703  3.89E-03
   419 Broy./Diag. 0.10E+00    5.5     0.01385762       -75.6518491567  1.10E-02
   420 Broy./Diag. 0.10E+00    5.5     0.01718261       -75.6702389637 -1.84E-02
   421 Broy./Diag. 0.10E+00    5.5     0.01407424       -75.6599747497  1.03E-02
   422 Broy./Diag. 0.10E+00    5.5     0.02197462       -75.6365283137  2.34E-02
   423 Broy./Diag. 0.10E+00    5.7     0.03170067       -75.6348957564  1.63E-03
   424 Broy./Diag. 0.10E+00    5.5     0.05711607       -75.6326540426  2.24E-03
   425 Broy./Diag. 0.10E+00    5.6     0.06044221       -75.6512989369 -1.86E-02
   426 Broy./Diag. 0.10E+00    5.5     0.02463932       -75.6901989737 -3.89E-02
   427 Broy./Diag. 0.10E+00    5.4     0.03127808       -75.7442950283 -5.41E-02
   428 Broy./Diag. 0.10E+00    5.4     0.05511087       -75.7858910897 -4.16E-02
   429 Broy./Diag. 0.10E+00    5.7     0.05301534       -75.8056617432 -1.98E-02
   430 Broy./Diag. 0.10E+00    5.7     0.01954476       -75.8066553372 -9.94E-04
   431 Broy./Diag. 0.10E+00    5.9     0.04033721       -75.7669200818  3.97E-02
   432 Broy./Diag. 0.10E+00    5.7     0.05732124       -75.7199189168  4.70E-02
   433 Broy./Diag. 0.10E+00    5.7     0.04772236       -75.6879324494  3.20E-02
   434 Broy./Diag. 0.10E+00    5.5     0.04509729       -75.6597154056  2.82E-02
   435 Broy./Diag. 0.10E+00    5.6     0.04034949       -75.6456767993  1.40E-02
   436 Broy./Diag. 0.10E+00    5.4     0.04476171       -75.6427323734  2.94E-03
   437 Broy./Diag. 0.10E+00    5.4     0.04621924       -75.6384469744  4.29E-03
   438 Broy./Diag. 0.10E+00    5.4     0.05552787       -75.6303737795  8.07E-03
   439 Broy./Diag. 0.10E+00    5.4     0.06509479       -75.6093661017  2.10E-02
   440 Broy./Diag. 0.10E+00    5.4     0.06575366       -75.5747740571  3.46E-02
   441 Broy./Diag. 0.10E+00    5.4     0.07384711       -75.5131188489  6.17E-02
   442 Broy./Diag. 0.10E+00    5.4     0.11694762       -75.5180366748 -4.92E-03
   443 Broy./Diag. 0.10E+00    5.6     0.13292472       -75.5556022487 -3.76E-02
   444 Broy./Diag. 0.10E+00    5.6     0.07782515       -75.5449234343  1.07E-02
   445 Broy./Diag. 0.10E+00    5.6     0.08066396       -75.4728747826  7.20E-02
   446 Broy./Diag. 0.10E+00    5.7     0.09345632       -75.4111214552  6.18E-02
   447 Broy./Diag. 0.10E+00    5.8     0.10102218       -75.3521036235  5.90E-02
   448 Broy./Diag. 0.10E+00    5.6     0.07619767       -75.3364758884  1.56E-02
   449 Broy./Diag. 0.10E+00    5.7     0.02736417       -75.3729790295 -3.65E-02
   450 Broy./Diag. 0.10E+00    5.6     0.02766070       -75.3634117382  9.57E-03
   451 Broy./Diag. 0.10E+00    5.5     0.05212905       -75.3820454174 -1.86E-02
   452 Broy./Diag. 0.10E+00    5.5     0.03483517       -75.4031669537 -2.11E-02
   453 Broy./Diag. 0.10E+00    5.4     0.02406159       -75.4273296907 -2.42E-02
   454 Broy./Diag. 0.10E+00    5.4     0.16825145       -75.4274198540 -9.02E-05
   455 Broy./Diag. 0.10E+00    5.4     0.20567492       -75.3999562079  2.75E-02
   456 Broy./Diag. 0.10E+00    5.5     0.14552964       -75.3854672073  1.45E-02
   457 Broy./Diag. 0.10E+00    5.4     0.06142253       -75.5612523028 -1.76E-01
   458 Broy./Diag. 0.10E+00    5.5     0.04618734       -75.4674872402  9.38E-02
   459 Broy./Diag. 0.10E+00    5.7     0.02191203       -75.5064192274 -3.89E-02
   460 Broy./Diag. 0.10E+00    5.7     0.01916316       -75.5410474305 -3.46E-02
   461 Broy./Diag. 0.10E+00    5.7     0.02234668       -75.5779747328 -3.69E-02
   462 Broy./Diag. 0.10E+00    5.6     0.05916915       -75.6416831761 -6.37E-02
   463 Broy./Diag. 0.10E+00    5.6     0.10774298       -75.6538273238 -1.21E-02
   464 Broy./Diag. 0.10E+00    5.5     0.14592623       -75.6322983308  2.15E-02
   465 Broy./Diag. 0.10E+00    5.5     0.07714957       -75.6184826646  1.38E-02
   466 Broy./Diag. 0.10E+00    5.5     0.04927869       -75.6154610489  3.02E-03
   467 Broy./Diag. 0.10E+00    5.4     0.04088361       -75.6234818171 -8.02E-03
   468 Broy./Diag. 0.10E+00    5.4     0.03627513       -75.6251662022 -1.68E-03
   469 Broy./Diag. 0.10E+00    5.4     0.01881624       -75.6164992759  8.67E-03
   470 Broy./Diag. 0.10E+00    5.4     0.02229328       -75.6309088752 -1.44E-02
   471 Broy./Diag. 0.10E+00    5.4     0.02453465       -75.6420483526 -1.11E-02
   472 Broy./Diag. 0.10E+00    5.3     0.01863250       -75.5682053776  7.38E-02
   473 Broy./Diag. 0.10E+00    5.4     0.02927839       -75.5183080661  4.99E-02
   474 Broy./Diag. 0.10E+00    5.4     0.04604087       -75.4917234868  2.66E-02
   475 Broy./Diag. 0.10E+00    5.5     0.05332980       -75.4797815326  1.19E-02
   476 Broy./Diag. 0.10E+00    5.7     0.03243150       -75.5584891425 -7.87E-02
   477 Broy./Diag. 0.10E+00    5.7     0.05472486       -75.5531446694  5.34E-03
   478 Broy./Diag. 0.10E+00    5.7     0.04449085       -75.5435023232  9.64E-03
   479 Broy./Diag. 0.10E+00    5.8     0.05376559       -75.6216521408 -7.81E-02
   480 Broy./Diag. 0.10E+00    5.7     0.08249882       -75.6756474245 -5.40E-02
   481 Broy./Diag. 0.10E+00    5.7     0.07814165       -75.6867633566 -1.11E-02
   482 Broy./Diag. 0.10E+00    5.5     0.05187280       -75.6952592047 -8.50E-03
   483 Broy./Diag. 0.10E+00    5.5     0.05038196       -75.7364780462 -4.12E-02
   484 Broy./Diag. 0.10E+00    5.4     0.06417216       -75.7571553706 -2.07E-02
   485 Broy./Diag. 0.10E+00    5.4     0.06650966       -75.7627575853 -5.60E-03
   486 Broy./Diag. 0.10E+00    5.4     0.05446226       -75.7749744743 -1.22E-02
   487 Broy./Diag. 0.10E+00    5.4     0.05283583       -75.7576712016  1.73E-02
   488 Broy./Diag. 0.10E+00    5.4     0.04540516       -75.7671927555 -9.52E-03
   489 Broy./Diag. 0.10E+00    5.4     0.03887139       -75.7626509492  4.54E-03
   490 Broy./Diag. 0.10E+00    5.3     0.04380655       -75.7283241725  3.43E-02
   491 Broy./Diag. 0.10E+00    5.4     0.03264584       -75.6955305963  3.28E-02
   492 Broy./Diag. 0.10E+00    5.6     0.02947412       -75.6340910138  6.14E-02
   493 Broy./Diag. 0.10E+00    5.7     0.04514939       -75.6223299077  1.18E-02
   494 Broy./Diag. 0.10E+00    5.7     0.02952878       -75.6136972452  8.63E-03
   495 Broy./Diag. 0.10E+00    5.7     0.02303732       -75.5931071425  2.06E-02
   496 Broy./Diag. 0.10E+00    5.6     0.04619441       -75.5318368063  6.13E-02
   497 Broy./Diag. 0.10E+00    5.5     0.04084387       -75.5320989505 -2.62E-04
   498 Broy./Diag. 0.10E+00    5.6     0.04165980       -75.8187183705 -2.87E-01
   499 Broy./Diag. 0.10E+00    5.5     0.07340799       -75.8047994693  1.39E-02
   500 Broy./Diag. 0.10E+00    5.4     0.08728745       -75.8539806736 -4.92E-02

  Leaving inner SCF loop after reaching   500 steps.


  Electronic density on regular grids:         -8.6240885886        3.3759114114
  Core density on regular grids:               12.0000000000        0.0000000000
  Hard and soft densities (Lebedev):          -47.5019682735      -44.1219726021
  Total Rho_soft + Rho1_hard - Rho1_soft      -12.0040842600
  Total charge density (r-space):              -0.0040842600
  Total Rho_soft + Rho0_soft (g-space):        -0.0040844020

  Overlap energy of the core charge distribution:               0.00003125550742
  Self energy of the core charge distribution:                -58.22549323810243
  Core Hamiltonian energy:                                    -15.12031607669148
  Hartree energy:                                              16.52026606484085
  Exchange-correlation energy:                                 -2.85464009495363
  Hartree-Fock Exchange energy:                                -2.52815203106780

  GAPW| Exc from hard and soft atomic rho1:                    -5.14575035568520
  GAPW| local Eh = 1 center integrals:                         -8.49992619742115

  Total energy:                                               -75.85398067357343

 *******************************************************************************
 *   ___                                                                       *
 *  /   \                                                                      *
 * [ABORT]                                                                     *
 *  \___/     SCF run NOT converged. To continue the calculation regardless,   *
 *    |             please set the keyword IGNORE_CONVERGENCE_FAILURE.         *
 *  O/|                                                                        *
 * /| |                                                                        *
 * / \                                                            qs_scf.F:611 *
 *******************************************************************************


 ===== Routine Calling Stack ===== 

            3 scf_env_do_scf
            2 qs_energies
            1 CP2K

 *******************************************************************************
 *   ___                                                                       *
 *  /   \                                                                      *
 * [ABORT]                                                                     *
 *  \___/     SCF run NOT converged. To continue the calculation regardless,   *
 *    |             please set the keyword IGNORE_CONVERGENCE_FAILURE.         *
 *  O/|                                                                        *
 * /| |                                                                        *
 * / \                                                            qs_scf.F:611 *
 *******************************************************************************


 ===== Routine Calling Stack ===== 

            3 scf_env_do_scf
            2 qs_energies
            1 CP2K

 *******************************************************************************
 *   ___                                                                       *
 *  /   \                                                                      *
 * [ABORT]                                                                     *
 *  \___/     SCF run NOT converged. To continue the calculation regardless,   *
 *    |             please set the keyword IGNORE_CONVERGENCE_FAILURE.         *
 *  O/|                                                                        *
 * /| |                                                                        *
 * / \                                                            qs_scf.F:611 *
 *******************************************************************************


 ===== Routine Calling Stack ===== 

            3 scf_env_do_scf
            2 qs_energies
            1 CP2K

 *******************************************************************************
 *   ___                                                                       *
 *  /   \                                                                      *
 * [ABORT]                                                                     *
 *  \___/     SCF run NOT converged. To continue the calculation regardless,   *
 *    |             please set the keyword IGNORE_CONVERGENCE_FAILURE.         *
 *  O/|                                                                        *
 * /| |                                                                        *
 * / \                                                            qs_scf.F:611 *
 *******************************************************************************


 ===== Routine Calling Stack ===== 

            3 scf_env_do_scf
            2 qs_energies
            1 CP2K

 *******************************************************************************
 *   ___                                                                       *
 *  /   \                                                                      *
 * [ABORT]                                                                     *
 *  \___/     SCF run NOT converged. To continue the calculation regardless,   *
 *    |             please set the keyword IGNORE_CONVERGENCE_FAILURE.         *
 *  O/|                                                                        *
 * /| |                                                                        *
 * / \                                                            qs_scf.F:611 *
 *******************************************************************************


 ===== Routine Calling Stack ===== 

            3 scf_env_do_scf
            2 qs_energies
            1 CP2K

 *******************************************************************************
 *   ___                                                                       *
 *  /   \                                                                      *
 * [ABORT]                                                                     *
 *  \___/     SCF run NOT converged. To continue the calculation regardless,   *
 *    |             please set the keyword IGNORE_CONVERGENCE_FAILURE.         *
 *  O/|                                                                        *
 * /| |                                                                        *
 * / \                                                            qs_scf.F:611 *
 *******************************************************************************


 ===== Routine Calling Stack ===== 

            3 scf_env_do_scf
            2 qs_energies
            1 CP2K

 *******************************************************************************
 *   ___                                                                       *
 *  /   \                                                                      *
 * [ABORT]                                                                     *
 *  \___/     SCF run NOT converged. To continue the calculation regardless,   *
 *    |             please set the keyword IGNORE_CONVERGENCE_FAILURE.         *
 *  O/|                                                                        *
 * /| |                                                                        *
 * / \                                                            qs_scf.F:611 *
 *******************************************************************************


 ===== Routine Calling Stack ===== 

            3 scf_env_do_scf
            2 qs_energies
            1 CP2K

 *******************************************************************************
 *   ___                                                                       *
 *  /   \                                                                      *
 * [ABORT]                                                                     *
 *  \___/     SCF run NOT converged. To continue the calculation regardless,   *
 *    |             please set the keyword IGNORE_CONVERGENCE_FAILURE.         *
 *  O/|                                                                        *
 * /| |                                                                        *
 * / \                                                            qs_scf.F:611 *
 *******************************************************************************


 ===== Routine Calling Stack ===== 

            3 scf_env_do_scf
            2 qs_energies
            1 CP2K

 *******************************************************************************
 *   ___                                                                       *
 *  /   \                                                                      *
 * [ABORT]                                                                     *
 *  \___/     SCF run NOT converged. To continue the calculation regardless,   *
 *    |             please set the keyword IGNORE_CONVERGENCE_FAILURE.         *
 *  O/|                                                                        *
 * /| |                                                                        *
 * / \                                                            qs_scf.F:611 *
 *******************************************************************************


 ===== Routine Calling Stack ===== 

            3 scf_env_do_scf
            2 qs_energies
            1 CP2K

 *******************************************************************************
 *   ___                                                                       *
 *  /   \                                                                      *
 * [ABORT]                                                                     *
 *  \___/     SCF run NOT converged. To continue the calculation regardless,   *
 *    |             please set the keyword IGNORE_CONVERGENCE_FAILURE.         *
 *  O/|                                                                        *
 * /| |                                                                        *
 * / \                                                            qs_scf.F:611 *
 *******************************************************************************


 ===== Routine Calling Stack ===== 

            3 scf_env_do_scf
            2 qs_energies
            1 CP2K

 *******************************************************************************
 *   ___                                                                       *
 *  /   \                                                                      *
 * [ABORT]                                                                     *
 *  \___/     SCF run NOT converged. To continue the calculation regardless,   *
 *    |             please set the keyword IGNORE_CONVERGENCE_FAILURE.         *
 *  O/|                                                                        *
 * /| |                                                                        *
 * / \                                                            qs_scf.F:611 *
 *******************************************************************************


 ===== Routine Calling Stack ===== 

            3 scf_env_do_scf
            2 qs_energies
            1 CP2K

 *******************************************************************************
 *   ___                                                                       *
 *  /   \                                                                      *
 * [ABORT]                                                                     *
 *  \___/     SCF run NOT converged. To continue the calculation regardless,   *
 *    |             please set the keyword IGNORE_CONVERGENCE_FAILURE.         *
 *  O/|                                                                        *
 * /| |                                                                        *
 * / \                                                            qs_scf.F:611 *
 *******************************************************************************


 ===== Routine Calling Stack ===== 

            3 scf_env_do_scf
            2 qs_energies
            1 CP2K

 *******************************************************************************
 *   ___                                                                       *
 *  /   \                                                                      *
 * [ABORT]                                                                     *
 *  \___/     SCF run NOT converged. To continue the calculation regardless,   *
 *    |             please set the keyword IGNORE_CONVERGENCE_FAILURE.         *
 *  O/|                                                                        *
 * /| |                                                                        *
 * / \                                                            qs_scf.F:611 *
 *******************************************************************************


 ===== Routine Calling Stack ===== 

            3 scf_env_do_scf
            2 qs_energies
            1 CP2K
