 DBCSR| CPU Multiplication driver                                           BLAS (U)
 DBCSR| Multrec recursion limit                                              512 (U)
 DBCSR| Multiplication stack size                                           1000 (D)
 DBCSR| Maximum elements for images                                    UNLIMITED (U)
 DBCSR| Multiplicative factor virtual images                                   1 (U)
 DBCSR| Use multiplication densification                                       T (D)
 DBCSR| Multiplication size stacks                                             3 (U)
 DBCSR| Use memory pool for CPU allocation                                     F (U)
 DBCSR| Number of 3D layers                                               SINGLE (U)
 DBCSR| Use MPI memory allocation                                              F (U)
 DBCSR| Use RMA algorithm                                                      F (U)
 DBCSR| Use Communication thread                                               T (U)
 DBCSR| Communication thread load                                             75 (D)
 DBCSR| MPI: My process id                                                     0
 DBCSR| MPI: Number of processes                                              24
 DBCSR| OMP: Current number of threads                                         4
 DBCSR| OMP: Max number of threads                                             4
 DBCSR| Split modifier for TAS multiplication algorithm                  1.0E+00 (U)


  **** **** ******  **  PROGRAM STARTED AT               2025-02-28 01:56:45.143
 ***** ** ***  *** **   PROGRAM STARTED ON                          i01r10c01s10
 **    ****   ******    PROGRAM STARTED BY                               di38fab
 ***** **    ** ** **   PROGRAM PROCESS ID                               1766150
  **** **  *******  **  PROGRAM STARTED IN /hppfs/scratch/04/di38fab/05_MOL/W4-1
                                           1+ALK/c2/DZVP

 CP2K| version string:                 CP2K version 2025.1 (Development Version)
 CP2K| source code revision number:                                  git:47877ba
 CP2K| cp2kflags: omp libint fftw3 libxc parallel scalapack max_contr=4         
 CP2K| is freely available from                            https://www.cp2k.org/
 CP2K| Program compiled at                          Thu Feb 20 16:00:34 CET 2025
 CP2K| Program compiled on                                               login04
 CP2K| Program compiled for                                        Supermuc-foss
 CP2K| Data directory path          /hppfs/work/pn36zo/di38fab/newcp2k/cp2k/data
 CP2K| Input file name                                                    GW.inp

 GLOBAL| Force Environment number                                              1
 GLOBAL| Basis set file name            /hppfs/scratch/04/di38fab/04_TMD/BASIS_A
 GLOBAL| Potential file name            /hppfs/work/pn36zo/di38fab/cp2k/data/ALL
 GLOBAL| MM Potential file name                                     MM_POTENTIAL
 GLOBAL| Coordinate file name                                      __STD_INPUT__
 GLOBAL| Method name                                                        CP2K
 GLOBAL| Project name                                                       MoS2
 GLOBAL| Run type                                                         ENERGY
 GLOBAL| FFT library                                                       FFTW3
 GLOBAL| Diagonalization library                                       ScaLAPACK
 GLOBAL| DGEMM library                                                      BLAS
 GLOBAL| Orthonormality check for eigenvectors                          DISABLED
 GLOBAL| Matrix multiplication library                                 ScaLAPACK
 GLOBAL| All-to-all communication in single precision                          F
 GLOBAL| FFTs using library dependent lengths                                  F
 GLOBAL| Grid backend                                                       AUTO
 GLOBAL| Global print level                                               MEDIUM
 GLOBAL| MPI I/O enabled                                                       T
 GLOBAL| Total number of message passing processes                            24
 GLOBAL| Number of threads for this process                                    4
 GLOBAL| This output is from process                                           0
 GLOBAL| OpenMP stack size per thread (OMP_STACKSIZE)                    default
 GLOBAL| CPU model name             Intel(R) Xeon(R) Platinum 8174 CPU @ 3.10GHz

 MEMORY| system memory details [Kb]
 MEMORY|                        rank 0           min           max       average
 MEMORY| MemTotal             98436664      98436648      98436664      98436656
 MEMORY| MemFree              84185248      84185248      85549224      84867236
 MEMORY| Buffers                     0             0             0             0
 MEMORY| Cached                2402164       2347216       2402164       2374690
 MEMORY| Slab                  1243332        966680       1243332       1105006
 MEMORY| SReclaimable           272436        218540        272436        245488
 MEMORY| MemLikelyFree        86859848      86859848      88114980      87487414


 *** Fundamental physical constants (SI units) ***

 *** Literature: B. J. Mohr and B. N. Taylor,
 ***             CODATA recommended values of the fundamental physical
 ***             constants: 2006, Web Version 5.1
 ***             http://physics.nist.gov/constants

 Speed of light in vacuum [m/s]                             2.99792458000000E+08
 Magnetic constant or permeability of vacuum [N/A**2]       1.25663706143592E-06
 Electric constant or permittivity of vacuum [F/m]          8.85418781762039E-12
 Planck constant (h) [J*s]                                  6.62606896000000E-34
 Planck constant (h-bar) [J*s]                              1.05457162825177E-34
 Elementary charge [C]                                      1.60217648700000E-19
 Electron mass [kg]                                         9.10938215000000E-31
 Electron g factor [ ]                                     -2.00231930436220E+00
 Proton mass [kg]                                           1.67262163700000E-27
 Fine-structure constant                                    7.29735253760000E-03
 Rydberg constant [1/m]                                     1.09737315685270E+07
 Avogadro constant [1/mol]                                  6.02214179000000E+23
 Boltzmann constant [J/K]                                   1.38065040000000E-23
 Atomic mass unit [kg]                                      1.66053878200000E-27
 Bohr radius [m]                                            5.29177208590000E-11

 *** Conversion factors ***

 [u] -> [a.u.]                                              1.82288848426455E+03
 [Angstrom] -> [Bohr] = [a.u.]                              1.88972613288564E+00
 [a.u.] = [Bohr] -> [Angstrom]                              5.29177208590000E-01
 [a.u.] -> [s]                                              2.41888432650478E-17
 [a.u.] -> [fs]                                             2.41888432650478E-02
 [a.u.] -> [J]                                              4.35974393937059E-18
 [a.u.] -> [N]                                              8.23872205491840E-08
 [a.u.] -> [K]                                              3.15774647902944E+05
 [a.u.] -> [kJ/mol]                                         2.62549961709828E+03
 [a.u.] -> [kcal/mol]                                       6.27509468713739E+02
 [a.u.] -> [Pa]                                             2.94210107994716E+13
 [a.u.] -> [bar]                                            2.94210107994716E+08
 [a.u.] -> [atm]                                            2.90362800883016E+08
 [a.u.] -> [eV]                                             2.72113838565563E+01
 [a.u.] -> [Hz]                                             6.57968392072181E+15
 [a.u.] -> [1/cm] (wave numbers)                            2.19474631370540E+05
 [a.u./Bohr**2] -> [1/cm]                                   5.14048714338585E+03
 

 CELL_TOP| Volume [angstrom^3]:                                     27000.000000
 CELL_TOP| Vector a [angstrom    30.000     0.000     0.000   |a| =    30.000000
 CELL_TOP| Vector b [angstrom     0.000    30.000     0.000   |b| =    30.000000
 CELL_TOP| Vector c [angstrom     0.000     0.000    30.000   |c| =    30.000000
 CELL_TOP| Angle (b,c), alpha [degree]:                                90.000000
 CELL_TOP| Angle (a,c), beta  [degree]:                                90.000000
 CELL_TOP| Angle (a,b), gamma [degree]:                                90.000000
 CELL_TOP| Numerically orthorhombic:                                         YES
 CELL_TOP| Periodicity                                                      NONE

 GENERATE|  Preliminary Number of Bonds generated:                             0
 GENERATE|  Achieved consistency in connectivity generation.

 CELL| Volume [angstrom^3]:                                         27000.000000
 CELL| Vector a [angstrom]:      30.000     0.000     0.000   |a| =    30.000000
 CELL| Vector b [angstrom]:       0.000    30.000     0.000   |b| =    30.000000
 CELL| Vector c [angstrom]:       0.000     0.000    30.000   |c| =    30.000000
 CELL| Angle (b,c), alpha [degree]:                                    90.000000
 CELL| Angle (a,c), beta  [degree]:                                    90.000000
 CELL| Angle (a,b), gamma [degree]:                                    90.000000
 CELL| Numerically orthorhombic:                                             YES
 CELL| Periodicity                                                          NONE

 CELL_REF| Volume [angstrom^3]:                                     27000.000000
 CELL_REF| Vector a [angstrom    30.000     0.000     0.000   |a| =    30.000000
 CELL_REF| Vector b [angstrom     0.000    30.000     0.000   |b| =    30.000000
 CELL_REF| Vector c [angstrom     0.000     0.000    30.000   |c| =    30.000000
 CELL_REF| Angle (b,c), alpha [degree]:                                90.000000
 CELL_REF| Angle (a,c), beta  [degree]:                                90.000000
 CELL_REF| Angle (a,b), gamma [degree]:                                90.000000
 CELL_REF| Numerically orthorhombic:                                         YES
 CELL_REF| Periodicity                                                      NONE

 *******************************************************************************
 *******************************************************************************
 **                                                                           **
 **     #####                         ##              ##                      **
 **    ##   ##            ##          ##              ##                      **
 **   ##     ##                       ##            ######                    **
 **   ##     ##  ##   ##  ##   #####  ##  ##   ####   ##    #####    #####    **
 **   ##     ##  ##   ##  ##  ##      ## ##   ##      ##   ##   ##  ##   ##   **
 **   ##  ## ##  ##   ##  ##  ##      ####     ###    ##   ######   ######    **
 **    ##  ###   ##   ##  ##  ##      ## ##      ##   ##   ##       ##        **
 **     #######   #####   ##   #####  ##  ##  ####    ##    #####   ##        **
 **           ##                                                    ##        **
 **                                                                           **
 **                                                ... make the atoms dance   **
 **                                                                           **
 **            Copyright (C) by CP2K developers group (2000-2025)             **
 **                      J. Chem. Phys. 152, 194103 (2020)                    **
 **                                                                           **
 *******************************************************************************

 DFT| Spin restricted Kohn-Sham (RKS) calculation                            RKS
 DFT| Multiplicity                                                             1
 DFT| Number of spin states                                                    1
 DFT| Charge                                                                   0
 DFT| Self-interaction correction (SIC)                                       NO
 DFT| Cutoffs: density                                              1.000000E-10
 DFT|          gradient                                             1.000000E-10
 DFT|          tau                                                  1.000000E-10
 DFT|          cutoff_smoothing_range                               0.000000E+00
 DFT| XC density smoothing                                                  NONE
 DFT| XC derivatives                                                          PW

 FUNCTIONAL| PBE:
 FUNCTIONAL| J.P.Perdew, K.Burke, M.Ernzerhof, Phys. Rev. Letter, vol. 77, n 18,
 FUNCTIONAL|  pp. 3865-3868, (1996)sx=0.750sc=1.000{spin unpolarized}           


 QS| Method:                                                                GAPW
 QS| Density plane wave grid type                        NON-SPHERICAL FULLSPACE
 QS| Number of grid levels:                                                    4
 QS| Density cutoff [a.u.]:                                                250.0
 QS| Multi grid cutoff [a.u.]: 1) grid level                               250.0
 QS|                           2) grid level                                83.3
 QS|                           3) grid level                                27.8
 QS|                           4) grid level                                 9.3
 QS| Grid level progression factor:                                          3.0
 QS| Relative density cutoff [a.u.]:                                        50.0
 QS| Interaction thresholds: eps_pgf_orb:                                1.0E-12
 QS|                         eps_filter_matrix:                          0.0E+00
 QS|                         eps_core_charge:                            1.0E-14
 QS|                         eps_rho_gspace:                             1.0E-12
 QS|                         eps_rho_rspace:                             1.0E-12
 QS|                         eps_gvg_rspace:                             1.0E-06
 QS|                         eps_ppl:                                    1.0E-02
 QS|                         eps_ppnl:                                   1.0E-08
 QS| GAPW|      One center basis from orbital basis primitives
 QS| GAPW|                   eps_fit:                                    1.0E-04
 QS| GAPW|                   eps_iso:                                    1.0E-12
 QS| GAPW|                   eps_svd:                                    1.0E-08
 QS| GAPW|                   eps_cpc:                                    1.0E-12
 QS| GAPW|   atom-r-grid: quadrature:                                     GC_LOG
 QS| GAPW|      atom-s-grid:  max l :                                          6
 QS| GAPW|      max_l_rho0 :                                                   2


 ATOMIC KIND INFORMATION

  1. Atomic kind: C                                     Number of atoms:       2

     Orbital Basis Set                                        aug-DZVP-MOLOPT-ae

       Number of orbital shell sets:                                           2
       Number of orbital shells:                                              10
       Number of primitive Cartesian functions:                               13
       Number of Cartesian basis functions:                                   35
       Number of spherical basis functions:                                   30
       Norm type:                                                              2

       Normalised Cartesian orbitals:

                        Set   Shell   Orbital            Exponent    Coefficient

                          1       1    2px               0.050000       0.000000
                                                         0.096935       0.005344
                                                         0.300899       0.144116
                                                         0.937529       0.673511
                                                         4.145546       1.425967
                          1       1    2py               0.050000       0.000000
                                                         0.096935       0.005344
                                                         0.300899       0.144116
                                                         0.937529       0.673511
                                                         4.145546       1.425967
                          1       1    2pz               0.050000       0.000000
                                                         0.096935       0.005344
                                                         0.300899       0.144116
                                                         0.937529       0.673511
                                                         4.145546       1.425967

                          1       2    3px               0.050000       0.000000
                                                         0.096935       0.066903
                                                         0.300899       0.082631
                                                         0.937529      -0.414500
                                                         4.145546      -0.833488
                          1       2    3py               0.050000       0.000000
                                                         0.096935       0.066903
                                                         0.300899       0.082631
                                                         0.937529      -0.414500
                                                         4.145546      -0.833488
                          1       2    3pz               0.050000       0.000000
                                                         0.096935       0.066903
                                                         0.300899       0.082631
                                                         0.937529      -0.414500
                                                         4.145546      -0.833488

                          1       3    4px               0.050000       0.052477
                                                         0.096935      -0.149600
                                                         0.300899      -0.031452
                                                         0.937529       0.106528
                                                         4.145546       0.000000
                          1       3    4py               0.050000       0.052477
                                                         0.096935      -0.149600
                                                         0.300899      -0.031452
                                                         0.937529       0.106528
                                                         4.145546       0.000000
                          1       3    4pz               0.050000       0.052477
                                                         0.096935      -0.149600
                                                         0.300899      -0.031452
                                                         0.937529       0.106528
                                                         4.145546       0.000000

                          1       4    3dx2              0.050000       0.000000
                                                         0.096935       0.001258
                                                         0.300899       0.105504
                                                         0.937529       0.830801
                                                         4.145546       0.718979
                          1       4    3dxy              0.050000       0.000000
                                                         0.096935       0.002179
                                                         0.300899       0.182739
                                                         0.937529       1.438990
                                                         4.145546       1.245309
                          1       4    3dxz              0.050000       0.000000
                                                         0.096935       0.002179
                                                         0.300899       0.182739
                                                         0.937529       1.438990
                                                         4.145546       1.245309
                          1       4    3dy2              0.050000       0.000000
                                                         0.096935       0.001258
                                                         0.300899       0.105504
                                                         0.937529       0.830801
                                                         4.145546       0.718979
                          1       4    3dyz              0.050000       0.000000
                                                         0.096935       0.002179
                                                         0.300899       0.182739
                                                         0.937529       1.438990
                                                         4.145546       1.245309
                          1       4    3dz2              0.050000       0.000000
                                                         0.096935       0.001258
                                                         0.300899       0.105504
                                                         0.937529       0.830801
                                                         4.145546       0.718979

                          1       5    4dx2              0.050000      -0.011665
                                                         0.096935       0.057456
                                                         0.300899      -0.258169
                                                         0.937529       0.000000
                                                         4.145546       0.000000
                          1       5    4dxy              0.050000      -0.020204
                                                         0.096935       0.099516
                                                         0.300899      -0.447162
                                                         0.937529       0.000000
                                                         4.145546       0.000000
                          1       5    4dxz              0.050000      -0.020204
                                                         0.096935       0.099516
                                                         0.300899      -0.447162
                                                         0.937529       0.000000
                                                         4.145546       0.000000
                          1       5    4dy2              0.050000      -0.011665
                                                         0.096935       0.057456
                                                         0.300899      -0.258169
                                                         0.937529       0.000000
                                                         4.145546       0.000000
                          1       5    4dyz              0.050000      -0.020204
                                                         0.096935       0.099516
                                                         0.300899      -0.447162
                                                         0.937529       0.000000
                                                         4.145546       0.000000
                          1       5    4dz2              0.050000      -0.011665
                                                         0.096935       0.057456
                                                         0.300899      -0.258169
                                                         0.937529       0.000000
                                                         4.145546       0.000000

                          1       6    4fx3              0.050000      -0.000180
                                                         0.096935       0.008160
                                                         0.300899       0.004002
                                                         0.937529       0.000000
                                                         4.145546       0.000000
                          1       6    4fx2y             0.050000      -0.000402
                                                         0.096935       0.018246
                                                         0.300899       0.008949
                                                         0.937529       0.000000
                                                         4.145546       0.000000
                          1       6    4fx2z             0.050000      -0.000402
                                                         0.096935       0.018246
                                                         0.300899       0.008949
                                                         0.937529       0.000000
                                                         4.145546       0.000000
                          1       6    4fxy2             0.050000      -0.000402
                                                         0.096935       0.018246
                                                         0.300899       0.008949
                                                         0.937529       0.000000
                                                         4.145546       0.000000
                          1       6    4fxyz             0.050000      -0.000696
                                                         0.096935       0.031603
                                                         0.300899       0.015500
                                                         0.937529       0.000000
                                                         4.145546       0.000000
                          1       6    4fxz2             0.050000      -0.000402
                                                         0.096935       0.018246
                                                         0.300899       0.008949
                                                         0.937529       0.000000
                                                         4.145546       0.000000
                          1       6    4fy3              0.050000      -0.000180
                                                         0.096935       0.008160
                                                         0.300899       0.004002
                                                         0.937529       0.000000
                                                         4.145546       0.000000
                          1       6    4fy2z             0.050000      -0.000402
                                                         0.096935       0.018246
                                                         0.300899       0.008949
                                                         0.937529       0.000000
                                                         4.145546       0.000000
                          1       6    4fyz2             0.050000      -0.000402
                                                         0.096935       0.018246
                                                         0.300899       0.008949
                                                         0.937529       0.000000
                                                         4.145546       0.000000
                          1       6    4fz3              0.050000      -0.000180
                                                         0.096935       0.008160
                                                         0.300899       0.004002
                                                         0.937529       0.000000
                                                         4.145546       0.000000

                          2       1    1s                0.060000       0.000000
                                                         0.161278       0.024253
                                                         0.523772      -0.029268
                                                         3.176528       0.666384
                                                        10.501907       2.110671
                                                        40.805234       2.242010
                                                       186.270922       1.801845
                                                      1238.394264      -0.490536

                          2       2    2s                0.060000       0.000000
                                                         0.161278       0.080328
                                                         0.523772       0.279468
                                                         3.176528      -0.079506
                                                        10.501907      -0.033488
                                                        40.805234       0.350132
                                                       186.270922      -0.108171
                                                      1238.394264       0.147138

                          2       3    3s                0.060000       0.000000
                                                         0.161278       0.225687
                                                         0.523772      -0.382710
                                                         3.176528      -0.308205
                                                        10.501907      -0.974990
                                                        40.805234      -2.174132
                                                       186.270922       1.755878
                                                      1238.394264     -12.484315

                          2       4    4s                0.060000      -0.055653
                                                         0.161278      -0.019607
                                                         0.523772       0.500289
                                                         3.176528       0.067234
                                                        10.501907       0.000000
                                                        40.805234       0.000000
                                                       186.270922       0.000000
                                                      1238.394264       0.000000

     RI Auxiliary Basis Set             RI_aug-DZVP-MOLOPT-ae_N_RI_035_s_p_d_f_g

       Number of orbital shell sets:                                          13
       Number of orbital shells:                                              13
       Number of primitive Cartesian functions:                               13
       Number of Cartesian basis functions:                                   40
       Number of spherical basis functions:                                   35
       Norm type:                                                              2

       Normalised Cartesian orbitals:

                        Set   Shell   Orbital            Exponent    Coefficient

                          1       1    1s                0.134513       0.158301

                          2       1    7px               0.345342       0.377357
                          2       1    7py               0.345342       0.377357
                          2       1    7pz               0.345342       0.377357

                          3       1    2s                0.391664       0.352854

                          4       1   11dx2              0.436474       0.385777
                          4       1   11dxy              0.436474       0.668185
                          4       1   11dxz              0.436474       0.668185
                          4       1   11dy2              0.436474       0.385777
                          4       1   11dyz              0.436474       0.668185
                          4       1   11dz2              0.436474       0.385777

                          5       1    8px               0.727642       0.957938
                          5       1    8py               0.727642       0.957938
                          5       1    8pz               0.727642       0.957938

                          6       1   13fx3              0.949659       1.310636
                          6       1   13fx2y             0.949659       2.930670
                          6       1   13fx2z             0.949659       2.930670
                          6       1   13fxy2             0.949659       2.930670
                          6       1   13fxyz             0.949659       5.076070
                          6       1   13fxz2             0.949659       2.930670
                          6       1   13fy3              0.949659       1.310636
                          6       1   13fy2z             0.949659       2.930670
                          6       1   13fyz2             0.949659       2.930670
                          6       1   13fz3              0.949659       1.310636

                          7       1   12dx2              1.330423       2.712634
                          7       1   12dxy              1.330423       4.698420
                          7       1   12dxz              1.330423       4.698420
                          7       1   12dy2              1.330423       2.712634
                          7       1   12dyz              1.330423       4.698420
                          7       1   12dz2              1.330423       2.712634

                          8       1    3s                1.404274       0.919388

                          9       1    9px               3.021876       5.679182
                          9       1    9py               3.021876       5.679182
                          9       1    9pz               3.021876       5.679182

                         10       1    4s                5.605818       2.596506

                         11       1   10px              16.034552      45.736309
                         11       1   10py              16.034552      45.736309
                         11       1   10pz              16.034552      45.736309

                         12       1    5s               21.900534       7.215246

                         13       1    6s               82.022187      19.424892

       Atomic covalent radius [Angstrom]:                                  0.770

       Atomic van der Waals radius [Angstrom]:                             1.700

     The atoms of this atomic kind are PAW atoms (GAPW):
       Hard Gaussian function radius:                                      1.512
       Rho0 radius:                                                        1.512
       Maximum GTO radius used for PAW projector construction:            24.566

     GAPW Soft Basis Set                                 aug-DZVP-MOLOPT-ae_soft

       Number of orbital shell sets:                                           2
       Number of orbital shells:                                              10
       Number of primitive Cartesian functions:                                9
       Number of Cartesian basis functions:                                   35
       Number of spherical basis functions:                                   30
       Norm type:                                                              2

       Normalised Cartesian orbitals:

                        Set   Shell   Orbital            Exponent    Coefficient

                          1       1    2px               0.050000       0.000000
                                                         0.096935       0.005344
                                                         0.300899       0.144116
                                                         0.937529       0.673511
                                                         4.145546       1.425967
                          1       1    2py               0.050000       0.000000
                                                         0.096935       0.005344
                                                         0.300899       0.144116
                                                         0.937529       0.673511
                                                         4.145546       1.425967
                          1       1    2pz               0.050000       0.000000
                                                         0.096935       0.005344
                                                         0.300899       0.144116
                                                         0.937529       0.673511
                                                         4.145546       1.425967

                          1       2    3px               0.050000       0.000000
                                                         0.096935       0.066903
                                                         0.300899       0.082631
                                                         0.937529      -0.414500
                                                         4.145546      -0.833488
                          1       2    3py               0.050000       0.000000
                                                         0.096935       0.066903
                                                         0.300899       0.082631
                                                         0.937529      -0.414500
                                                         4.145546      -0.833488
                          1       2    3pz               0.050000       0.000000
                                                         0.096935       0.066903
                                                         0.300899       0.082631
                                                         0.937529      -0.414500
                                                         4.145546      -0.833488

                          1       3    4px               0.050000       0.052477
                                                         0.096935      -0.149600
                                                         0.300899      -0.031452
                                                         0.937529       0.106528
                                                         4.145546       0.000000
                          1       3    4py               0.050000       0.052477
                                                         0.096935      -0.149600
                                                         0.300899      -0.031452
                                                         0.937529       0.106528
                                                         4.145546       0.000000
                          1       3    4pz               0.050000       0.052477
                                                         0.096935      -0.149600
                                                         0.300899      -0.031452
                                                         0.937529       0.106528
                                                         4.145546       0.000000

                          1       4    3dx2              0.050000       0.000000
                                                         0.096935       0.001258
                                                         0.300899       0.105504
                                                         0.937529       0.830801
                                                         4.145546       0.718979
                          1       4    3dxy              0.050000       0.000000
                                                         0.096935       0.002179
                                                         0.300899       0.182739
                                                         0.937529       1.438990
                                                         4.145546       1.245309
                          1       4    3dxz              0.050000       0.000000
                                                         0.096935       0.002179
                                                         0.300899       0.182739
                                                         0.937529       1.438990
                                                         4.145546       1.245309
                          1       4    3dy2              0.050000       0.000000
                                                         0.096935       0.001258
                                                         0.300899       0.105504
                                                         0.937529       0.830801
                                                         4.145546       0.718979
                          1       4    3dyz              0.050000       0.000000
                                                         0.096935       0.002179
                                                         0.300899       0.182739
                                                         0.937529       1.438990
                                                         4.145546       1.245309
                          1       4    3dz2              0.050000       0.000000
                                                         0.096935       0.001258
                                                         0.300899       0.105504
                                                         0.937529       0.830801
                                                         4.145546       0.718979

                          1       5    4dx2              0.050000      -0.011665
                                                         0.096935       0.057456
                                                         0.300899      -0.258169
                                                         0.937529       0.000000
                                                         4.145546       0.000000
                          1       5    4dxy              0.050000      -0.020204
                                                         0.096935       0.099516
                                                         0.300899      -0.447162
                                                         0.937529       0.000000
                                                         4.145546       0.000000
                          1       5    4dxz              0.050000      -0.020204
                                                         0.096935       0.099516
                                                         0.300899      -0.447162
                                                         0.937529       0.000000
                                                         4.145546       0.000000
                          1       5    4dy2              0.050000      -0.011665
                                                         0.096935       0.057456
                                                         0.300899      -0.258169
                                                         0.937529       0.000000
                                                         4.145546       0.000000
                          1       5    4dyz              0.050000      -0.020204
                                                         0.096935       0.099516
                                                         0.300899      -0.447162
                                                         0.937529       0.000000
                                                         4.145546       0.000000
                          1       5    4dz2              0.050000      -0.011665
                                                         0.096935       0.057456
                                                         0.300899      -0.258169
                                                         0.937529       0.000000
                                                         4.145546       0.000000

                          1       6    4fx3              0.050000      -0.000180
                                                         0.096935       0.008160
                                                         0.300899       0.004002
                                                         0.937529       0.000000
                                                         4.145546       0.000000
                          1       6    4fx2y             0.050000      -0.000402
                                                         0.096935       0.018246
                                                         0.300899       0.008949
                                                         0.937529       0.000000
                                                         4.145546       0.000000
                          1       6    4fx2z             0.050000      -0.000402
                                                         0.096935       0.018246
                                                         0.300899       0.008949
                                                         0.937529       0.000000
                                                         4.145546       0.000000
                          1       6    4fxy2             0.050000      -0.000402
                                                         0.096935       0.018246
                                                         0.300899       0.008949
                                                         0.937529       0.000000
                                                         4.145546       0.000000
                          1       6    4fxyz             0.050000      -0.000696
                                                         0.096935       0.031603
                                                         0.300899       0.015500
                                                         0.937529       0.000000
                                                         4.145546       0.000000
                          1       6    4fxz2             0.050000      -0.000402
                                                         0.096935       0.018246
                                                         0.300899       0.008949
                                                         0.937529       0.000000
                                                         4.145546       0.000000
                          1       6    4fy3              0.050000      -0.000180
                                                         0.096935       0.008160
                                                         0.300899       0.004002
                                                         0.937529       0.000000
                                                         4.145546       0.000000
                          1       6    4fy2z             0.050000      -0.000402
                                                         0.096935       0.018246
                                                         0.300899       0.008949
                                                         0.937529       0.000000
                                                         4.145546       0.000000
                          1       6    4fyz2             0.050000      -0.000402
                                                         0.096935       0.018246
                                                         0.300899       0.008949
                                                         0.937529       0.000000
                                                         4.145546       0.000000
                          1       6    4fz3              0.050000      -0.000180
                                                         0.096935       0.008160
                                                         0.300899       0.004002
                                                         0.937529       0.000000
                                                         4.145546       0.000000

                          2       1    1s                0.060000       0.000000
                                                         0.161278       0.024253
                                                         0.523772      -0.029268
                                                         3.176528       0.666384

                          2       2    2s                0.060000       0.000000
                                                         0.161278       0.080328
                                                         0.523772       0.279468
                                                         3.176528      -0.079506

                          2       3    3s                0.060000       0.000000
                                                         0.161278       0.225687
                                                         0.523772      -0.382710
                                                         3.176528      -0.308205

                          2       4    4s                0.060000      -0.055653
                                                         0.161278      -0.019607
                                                         0.523772       0.500289
                                                         3.176528       0.067234

     AE Potential information for                                            ALL

       Description:                                       All-electron potential
                                          Krack, Parrinello, PCCP 2, 2105 (2000)

       Gaussian exponent of the core charge distribution:               4.109048
       Electronic configuration (s p d ...):                           4   2   0


 MOLECULE KIND INFORMATION


 All atoms are their own molecule, skipping detailed information


 TOTAL NUMBERS AND MAXIMUM NUMBERS

  Total number of            - Atomic kinds:                                   1
                             - Atoms:                                          2
                             - Shell sets:                                     4
                             - Shells:                                        20
                             - Primitive Cartesian functions:                 26
                             - Cartesian basis functions:                     70
                             - Spherical basis functions:                     60

  Maximum angular momentum of the orbital basis functions:                     3


 MODULE QUICKSTEP: ATOMIC COORDINATES IN ANGSTROM

   Atom Kind Element         X             Y             Z       Z(eff)     Mass
      1    1 C     6     15.620000     15.000000     15.000000   6.0000  12.0107
      2    1 C     6     14.380000     15.000000     15.000000   6.0000  12.0107



 SCF PARAMETERS         Density guess:                                    ATOMIC
                        --------------------------------------------------------
                        max_scf:                                             500
                        max_scf_history:                                       0
                        max_diis:                                              4
                        --------------------------------------------------------
                        eps_scf:                                        1.00E-06
                        eps_scf_history:                                0.00E+00
                        eps_diis:                                       1.00E-01
                        eps_eigval:                                     1.00E-05
                        --------------------------------------------------------
                        level_shift [a.u.]:                             0.000000
                        added MOs                                        54    0
                        --------------------------------------------------------
                        Mixing method:                            BROYDEN_MIXING
                                                charge density mixing in g-space
                        --------------------------------------------------------
                        No outer SCF

 PW_GRID| Information for grid number                                          1
 PW_GRID| Grid distributed over                                    24 processors
 PW_GRID| Real space group dimensions                                    24    1
 PW_GRID| the grid is blocked:                                                NO
 PW_GRID| Cutoff [a.u.]                                                    250.0
 PW_GRID| spherical cutoff:                                                   NO
 PW_GRID|   Bounds   1           -202     202                Points:         405
 PW_GRID|   Bounds   2           -202     202                Points:         405
 PW_GRID|   Bounds   3           -202     202                Points:         405
 PW_GRID| Volume element (a.u.^3)  0.2743E-02     Volume (a.u.^3)    182205.0337
 PW_GRID| Grid span                                                    FULLSPACE
 PW_GRID|   Distribution                         Average         Max         Min
 PW_GRID|   G-Vectors                          2767921.9     2768175     2767770
 PW_GRID|   G-Rays                                6834.4        6835        6834
 PW_GRID|   Real Space Points                  2767921.9     2788425     2624400

 PW_GRID| Information for grid number                                          2
 PW_GRID| Number of the reference grid                                         1
 PW_GRID| Grid distributed over                                    24 processors
 PW_GRID| Real space group dimensions                                    24    1
 PW_GRID| the grid is blocked:                                                NO
 PW_GRID| Cutoff [a.u.]                                                     83.3
 PW_GRID| spherical cutoff:                                                   NO
 PW_GRID|   Bounds   1           -120     119                Points:         240
 PW_GRID|   Bounds   2           -120     119                Points:         240
 PW_GRID|   Bounds   3           -120     119                Points:         240
 PW_GRID| Volume element (a.u.^3)  0.1318E-01     Volume (a.u.^3)    182205.0337
 PW_GRID| Grid span                                                    FULLSPACE
 PW_GRID|   Distribution                         Average         Max         Min
 PW_GRID|   G-Vectors                           576000.0      576240      575760
 PW_GRID|   G-Rays                                2400.0        2401        2399
 PW_GRID|   Real Space Points                   576000.0      576000      576000

 PW_GRID| Information for grid number                                          3
 PW_GRID| Number of the reference grid                                         1
 PW_GRID| Grid distributed over                                    24 processors
 PW_GRID| Real space group dimensions                                    24    1
 PW_GRID| the grid is blocked:                                                NO
 PW_GRID| Cutoff [a.u.]                                                     27.8
 PW_GRID| spherical cutoff:                                                   NO
 PW_GRID|   Bounds   1            -67      67                Points:         135
 PW_GRID|   Bounds   2            -67      67                Points:         135
 PW_GRID|   Bounds   3            -67      67                Points:         135
 PW_GRID| Volume element (a.u.^3)  0.7406E-01     Volume (a.u.^3)    182205.0337
 PW_GRID| Grid span                                                    FULLSPACE
 PW_GRID|   Distribution                         Average         Max         Min
 PW_GRID|   G-Vectors                           102515.6      102735      102330
 PW_GRID|   G-Rays                                 759.4         761         758
 PW_GRID|   Real Space Points                   102515.6      109350       91125

 PW_GRID| Information for grid number                                          4
 PW_GRID| Number of the reference grid                                         1
 PW_GRID| Grid distributed over                                    24 processors
 PW_GRID| Real space group dimensions                                    24    1
 PW_GRID| the grid is blocked:                                                NO
 PW_GRID| Cutoff [a.u.]                                                      9.3
 PW_GRID| spherical cutoff:                                                   NO
 PW_GRID|   Bounds   1            -40      39                Points:          80
 PW_GRID|   Bounds   2            -40      39                Points:          80
 PW_GRID|   Bounds   3            -40      39                Points:          80
 PW_GRID| Volume element (a.u.^3)  0.3559         Volume (a.u.^3)    182205.0337
 PW_GRID| Grid span                                                    FULLSPACE
 PW_GRID|   Distribution                         Average         Max         Min
 PW_GRID|   G-Vectors                            21333.3       21360       21280
 PW_GRID|   G-Rays                                 266.7         267         266
 PW_GRID|   Real Space Points                    21333.3       25600       19200

 POISSON| Solver                                                         WAVELET
 POISSON| Wavelet| Scaling function                                           40
 POISSON| Periodicity                                                       NONE

 RS_GRID| Information for grid number                                          1
 RS_GRID|   Bounds   1           -202     202                Points:         405
 RS_GRID|   Bounds   2           -202     202                Points:         405
 RS_GRID|   Bounds   3           -202     202                Points:         405
 RS_GRID| Real space distribution over                                  4 groups
 RS_GRID| Real space distribution along direction                              2
 RS_GRID| Border size                                                         35
 RS_GRID| Real space distribution over                                  6 groups
 RS_GRID| Real space distribution along direction                              3
 RS_GRID| Border size                                                         35
 RS_GRID|   Distribution                         Average         Max         Min
 RS_GRID|   Planes                                 171.2         172         171
 RS_GRID|   Distribution                         Average         Max         Min
 RS_GRID|   Planes                                 137.5         138         137

 RS_GRID| Information for grid number                                          2
 RS_GRID|   Bounds   1           -120     119                Points:         240
 RS_GRID|   Bounds   2           -120     119                Points:         240
 RS_GRID|   Bounds   3           -120     119                Points:         240
 RS_GRID| Real space distribution over                                  4 groups
 RS_GRID| Real space distribution along direction                              2
 RS_GRID| Border size                                                         38
 RS_GRID| Real space distribution over                                  6 groups
 RS_GRID| Real space distribution along direction                              3
 RS_GRID| Border size                                                         38
 RS_GRID|   Distribution                         Average         Max         Min
 RS_GRID|   Planes                                 136.0         136         136
 RS_GRID|   Distribution                         Average         Max         Min
 RS_GRID|   Planes                                 116.0         116         116

 RS_GRID| Information for grid number                                          3
 RS_GRID|   Bounds   1            -67      67                Points:         135
 RS_GRID|   Bounds   2            -67      67                Points:         135
 RS_GRID|   Bounds   3            -67      67                Points:         135
 RS_GRID| Real space fully replicated
 RS_GRID| Group size                                                           1

 RS_GRID| Information for grid number                                          4
 RS_GRID|   Bounds   1            -40      39                Points:          80
 RS_GRID|   Bounds   2            -40      39                Points:          80
 RS_GRID|   Bounds   3            -40      39                Points:          80
 RS_GRID| Real space fully replicated
 RS_GRID| Group size                                                           1

  HFX_INFO| Replica ID:                                                        1
  HFX_INFO| FRACTION:                                               0.2500000000
  HFX_INFO| Interaction Potential:                                       COULOMB
  HFX_INFO| EPS_SCHWARZ:                                                 1.0E-10
  HFX_INFO| EPS_SCHWARZ_FORCES                                           1.0E-08
  HFX_INFO| EPS_STORAGE_SCALING:                                         1.0E+00
  HFX_INFO| NBINS:                                                            64
  HFX_INFO| BLOCK_SIZE:                                                        1
  HFX_INFO| Number of periodic shells considered:                           NONE
  HFX_INFO| Number of periodic cells considered:                            NONE

 
 RI-RPA| using GPW style
 

 OVERLAP MATRIX CONDITION NUMBER
 1-Norm Condition Number (Estimate)
   CN : |A|*|A^-1|:  5.324E+000 *  8.956E+002   = 4.769E+003  Log(1-CN):  3.6784
 1-Norm and 2-Norm Condition Numbers using Diagonalization
   CN : |A|*|A^-1|:  5.324E+000 *  8.956E+002   = 4.769E+003  Log(1-CN):  3.6784
   CN : max/min ev:  3.467E+000 /  1.709E-003   = 2.029E+003  Log(2-CN):  3.3072

 Number of electrons:                                                         12
 Number of occupied orbitals:                                                  6
 Number of molecular orbitals:                                                60

 Number of orbital functions:                                                 60
 Number of independent orbital functions:                                     60

 Extrapolation method: initial_guess

 Atomic guess: The first density matrix is obtained in terms of atomic orbitals
               and electronic configurations assigned to each atomic kind

 Guess for atomic kind: C

 Electronic structure
    Total number of core electrons                                          0.00
    Total number of valence electrons                                       6.00
    Total number of electrons                                               6.00
    Multiplicity                                                   not specified
    S      2.00  2.00
    P      2.00


 *******************************************************************************
                  Iteration          Convergence                     Energy [au]
 *******************************************************************************
                          1        0.133902                     -37.363061759844
                          2        0.102325                     -37.368472442706
                          3        0.860737E-03                 -37.376215693871
                          4        0.849047E-04                 -37.376216293501
                          5        0.219397E-06                 -37.376216298714

 Energy components [Hartree]           Total Energy ::          -37.376216298714
                                        Band Energy ::          -21.245708131868
                                     Kinetic Energy ::           37.464666877769
                                   Potential Energy ::          -74.840883176484
                                      Virial (-V/T) ::            1.997639093406
                                        Core Energy ::          -50.271057779086
                                          XC Energy ::           -4.736056292831
                                     Coulomb Energy ::           17.630897773203

 Orbital energies  State     L     Occupation   Energy[a.u.]          Energy[eV]

                       1     0          2.000      -9.941022         -270.508975
                       2     0          2.000      -0.490185          -13.338601

                       1     1          2.000      -0.191647           -5.214984


 Total Electron Density at R=0:                                       116.283880
 Re-scaling the density matrix to get the right number of electrons
                  # Electrons              Trace(P)               Scaling factor
                           12                12.000                        1.000


 SCF WAVEFUNCTION OPTIMIZATION

  Step     Update method      Time    Convergence         Total energy    Change
  ------------------------------------------------------------------------------

  HFX_MEM_INFO| Est. max. program size before HFX [MiB]:                    2165
  HFX_MEM_INFO| Number of cart. primitive ERI's calculated:            674513758
  HFX_MEM_INFO| Number of sph. ERI's calculated:                         4860000
  HFX_MEM_INFO| Number of sph. ERI's stored in-core:                     4860000
  HFX_MEM_INFO| Number of sph. ERI's stored on disk:                           0
  HFX_MEM_INFO| Number of sph. ERI's calculated on the fly:                    0
  HFX_MEM_INFO| Total memory consumption ERI's RAM [MiB]:                     20
  HFX_MEM_INFO| Whereof max-vals [MiB]:                                        1
  HFX_MEM_INFO| Total compression factor ERI's RAM:                         1.87
  HFX_MEM_INFO| Total memory consumption ERI's disk [MiB]:                     0
  HFX_MEM_INFO| Total compression factor ERI's disk:                        0.00
  HFX_MEM_INFO| Size of density/Fock matrix [MiB]:                             0
  HFX_MEM_INFO| Size of buffers [MiB]:                                        13
  HFX_MEM_INFO| Est. max. program size after HFX  [MiB]:                    2697

     1 NoMix/Diag. 0.10E+00   18.7     1.31515393       -75.9310665379 -7.59E+01
     2 Broy./Diag. 0.10E+00    4.9     0.03786267       -75.1120750673  8.19E-01
     3 Broy./Diag. 0.10E+00    4.9     0.03612222       -74.7722713269  3.40E-01
     4 Broy./Diag. 0.10E+00    4.9     0.11297437       -75.1044644284 -3.32E-01
     5 Broy./Diag. 0.10E+00    4.9     0.03035415       -75.5941547410 -4.90E-01
     6 Broy./Diag. 0.10E+00    5.0     0.00543255       -75.6729189492 -7.88E-02
     7 Broy./Diag. 0.10E+00    5.0     0.00530417       -75.6657737796  7.15E-03
     8 Broy./Diag. 0.10E+00    5.2     0.00091954       -75.6769877144 -1.12E-02
     9 Broy./Diag. 0.10E+00    5.4     0.00183013       -75.6710913973  5.90E-03
    10 Broy./Diag. 0.10E+00    5.4     0.00300336       -75.6795459025 -8.45E-03
    11 Broy./Diag. 0.10E+00    5.3     0.00295092       -75.6968052718 -1.73E-02
    12 Broy./Diag. 0.10E+00    5.3     0.00332821       -75.7153868303 -1.86E-02
    13 Broy./Diag. 0.10E+00    5.3     0.00072513       -75.7284432109 -1.31E-02
    14 Broy./Diag. 0.10E+00    5.3     0.00205284       -75.7188822037  9.56E-03
    15 Broy./Diag. 0.10E+00    5.3     0.00034867       -75.7128604857  6.02E-03
    16 Broy./Diag. 0.10E+00    5.3     0.00027211       -75.7151758074 -2.32E-03
    17 Broy./Diag. 0.10E+00    5.4     0.00070564       -75.7169562185 -1.78E-03
    18 Broy./Diag. 0.10E+00    5.4     0.00105219       -75.7214948996 -4.54E-03
    19 Broy./Diag. 0.10E+00    5.3     0.00013553       -75.7250245881 -3.53E-03
    20 Broy./Diag. 0.10E+00    5.3     0.00020360       -75.7246290513  3.96E-04
    21 Broy./Diag. 0.10E+00    5.4     0.00009516       -75.7239210239  7.08E-04
    22 Broy./Diag. 0.10E+00    5.4     0.00044873       -75.7215842221  2.34E-03
    23 Broy./Diag. 0.10E+00    5.4     0.00014110       -75.7204773988  1.11E-03
    24 Broy./Diag. 0.10E+00    5.4     0.00023403       -75.7217864512 -1.31E-03
    25 Broy./Diag. 0.10E+00    5.4     0.00005883       -75.7224017083 -6.15E-04
    26 Broy./Diag. 0.10E+00    5.4     0.00005303       -75.7221282345  2.73E-04
    27 Broy./Diag. 0.10E+00    5.3     0.00008431       -75.7224064727 -2.78E-04
    28 Broy./Diag. 0.10E+00    5.3     0.00003197       -75.7227349635 -3.28E-04
    29 Broy./Diag. 0.10E+00    5.3     0.00006767       -75.7229907601 -2.56E-04
    30 Broy./Diag. 0.10E+00    5.3     0.00008337       -75.7230493117 -5.86E-05
    31 Broy./Diag. 0.10E+00    5.3     0.00014982       -75.7226397071  4.10E-04
    32 Broy./Diag. 0.10E+00    5.4     0.00006529       -75.7224393695  2.00E-04
    33 Broy./Diag. 0.10E+00    5.4     0.00005158       -75.7225991842 -1.60E-04
    34 Broy./Diag. 0.10E+00    5.4     0.00003622       -75.7225949112  4.27E-06
    35 Broy./Diag. 0.10E+00    5.3     0.00006477       -75.7224729355  1.22E-04
    36 Broy./Diag. 0.10E+00    5.3     0.00005221       -75.7223900539  8.29E-05
    37 Broy./Diag. 0.10E+00    5.3     0.00003994       -75.7223848388  5.22E-06
    38 Broy./Diag. 0.10E+00    5.3     0.00002995       -75.7223827429  2.10E-06
    39 Broy./Diag. 0.10E+00    5.3     0.00003941       -75.7224275803 -4.48E-05
    40 Broy./Diag. 0.10E+00    5.3     0.00003531       -75.7224576529 -3.01E-05
    41 Broy./Diag. 0.10E+00    5.4     0.00004681       -75.7224652190 -7.57E-06
    42 Broy./Diag. 0.10E+00    5.4     0.00003229       -75.7224360965  2.91E-05
    43 Broy./Diag. 0.10E+00    5.4     0.00002853       -75.7223972960  3.88E-05
    44 Broy./Diag. 0.10E+00    5.3     0.00003224       -75.7223687305  2.86E-05
    45 Broy./Diag. 0.10E+00    5.3     0.00003684       -75.7224109428 -4.22E-05
    46 Broy./Diag. 0.10E+00    5.3     0.00003117       -75.7224746967 -6.38E-05
    47 Broy./Diag. 0.10E+00    5.3     0.00003079       -75.7224321165  4.26E-05
    48 Broy./Diag. 0.10E+00    5.4     0.00002742       -75.7224042784  2.78E-05
    49 Broy./Diag. 0.10E+00    5.5     0.00004402       -75.7225236434 -1.19E-04
    50 Broy./Diag. 0.10E+00    5.4     0.00004811       -75.7225822826 -5.86E-05
    51 Broy./Diag. 0.10E+00    5.4     0.00005554       -75.7225463171  3.60E-05
    52 Broy./Diag. 0.10E+00    5.3     0.00005436       -75.7225198440  2.65E-05
    53 Broy./Diag. 0.10E+00    5.3     0.00005154       -75.7225166767  3.17E-06
    54 Broy./Diag. 0.10E+00    5.3     0.00005732       -75.7225058137  1.09E-05
    55 Broy./Diag. 0.10E+00    5.4     0.00005707       -75.7224993250  6.49E-06
    56 Broy./Diag. 0.10E+00    5.3     0.00004833       -75.7224995552 -2.30E-07
    57 Broy./Diag. 0.10E+00    5.4     0.00005149       -75.7225035451 -3.99E-06
    58 Broy./Diag. 0.10E+00    5.4     0.00005186       -75.7225178216 -1.43E-05
    59 Broy./Diag. 0.10E+00    5.3     0.00004762       -75.7225261935 -8.37E-06
    60 Broy./Diag. 0.10E+00    5.3     0.00005170       -75.7225234599  2.73E-06
    61 Broy./Diag. 0.10E+00    5.3     0.00004714       -75.7225300597 -6.60E-06
    62 Broy./Diag. 0.10E+00    5.3     0.00004377       -75.7225306796 -6.20E-07
    63 Broy./Diag. 0.10E+00    5.4     0.00004617       -75.7225280276  2.65E-06
    64 Broy./Diag. 0.10E+00    5.4     0.00004084       -75.7225376468 -9.62E-06
    65 Broy./Diag. 0.10E+00    5.4     0.00003193       -75.7225350432  2.60E-06
    66 Broy./Diag. 0.10E+00    5.4     0.00003598       -75.7225228203  1.22E-05
    67 Broy./Diag. 0.10E+00    5.4     0.00003381       -75.7225358616 -1.30E-05
    68 Broy./Diag. 0.10E+00    5.4     0.00003328       -75.7225605456 -2.47E-05
    69 Broy./Diag. 0.10E+00    5.3     0.00004038       -75.7225683321 -7.79E-06
    70 Broy./Diag. 0.10E+00    5.4     0.00003280       -75.7225757129 -7.38E-06
    71 Broy./Diag. 0.10E+00    5.3     0.00002992       -75.7225822945 -6.58E-06
    72 Broy./Diag. 0.10E+00    5.4     0.00003718       -75.7225822681  2.64E-08
    73 Broy./Diag. 0.10E+00    5.4     0.00002961       -75.7225966906 -1.44E-05
    74 Broy./Diag. 0.10E+00    5.4     0.00002254       -75.7225511161  4.56E-05
    75 Broy./Diag. 0.10E+00    5.3     0.00002846       -75.7224667763  8.43E-05
    76 Broy./Diag. 0.10E+00    5.3     0.00002835       -75.7224611518  5.62E-06
    77 Broy./Diag. 0.10E+00    5.4     0.00002921       -75.7224603353  8.16E-07
    78 Broy./Diag. 0.10E+00    5.4     0.00013141       -75.7225017066 -4.14E-05
    79 Broy./Diag. 0.10E+00    5.3     0.00008926       -75.7225692791 -6.76E-05
    80 Broy./Diag. 0.10E+00    5.3     0.00006086       -75.7225868038 -1.75E-05
    81 Broy./Diag. 0.10E+00    5.4     0.00020182       -75.7224421014  1.45E-04
    82 Broy./Diag. 0.10E+00    5.4     0.00038491       -75.7224346393  7.46E-06
    83 Broy./Diag. 0.10E+00    5.3     0.00038290       -75.7223713265  6.33E-05
    84 Broy./Diag. 0.10E+00    5.3     0.00017489       -75.7224792926 -1.08E-04
    85 Broy./Diag. 0.10E+00    5.3     0.00010896       -75.7227606721 -2.81E-04
    86 Broy./Diag. 0.10E+00    5.3     0.00015863       -75.7228884874 -1.28E-04
    87 Broy./Diag. 0.10E+00    5.4     0.00015861       -75.7230123416 -1.24E-04
    88 Broy./Diag. 0.10E+00    5.4     0.00020251       -75.7230356526 -2.33E-05
    89 Broy./Diag. 0.10E+00    5.4     0.00025322       -75.7230350044  6.48E-07
    90 Broy./Diag. 0.10E+00    5.4     0.00031591       -75.7230570376 -2.20E-05
    91 Broy./Diag. 0.10E+00    5.3     0.00039858       -75.7230964769 -3.94E-05
    92 Broy./Diag. 0.10E+00    5.4     0.00050601       -75.7230848347  1.16E-05
    93 Broy./Diag. 0.10E+00    5.4     0.00063750       -75.7229433181  1.42E-04
    94 Broy./Diag. 0.10E+00    5.4     0.00079588       -75.7225869440  3.56E-04
    95 Broy./Diag. 0.10E+00    5.3     0.00101135       -75.7223982530  1.89E-04
    96 Broy./Diag. 0.10E+00    5.3     0.00127778       -75.7227234319 -3.25E-04
    97 Broy./Diag. 0.10E+00    5.4     0.00159628       -75.7226632353  6.02E-05
    98 Broy./Diag. 0.10E+00    5.4     0.00199287       -75.7226863620 -2.31E-05
    99 Broy./Diag. 0.10E+00    5.3     0.00249430       -75.7228109946 -1.25E-04
   100 Broy./Diag. 0.10E+00    5.4     0.00313423       -75.7229695176 -1.59E-04
   101 Broy./Diag. 0.10E+00    5.4     0.00394726       -75.7230206112 -5.11E-05
   102 Broy./Diag. 0.10E+00    5.3     0.00495372       -75.7226568685  3.64E-04
   103 Broy./Diag. 0.10E+00    5.3     0.00617454       -75.7216803124  9.77E-04
   104 Broy./Diag. 0.10E+00    5.3     0.00773263       -75.7204147683  1.27E-03
   105 Broy./Diag. 0.10E+00    5.4     0.00967431       -75.7201814170  2.33E-04
   106 Broy./Diag. 0.10E+00    5.4     0.01200686       -75.7188062896  1.38E-03
   107 Broy./Diag. 0.10E+00    5.3     0.01476783       -75.7161456374  2.66E-03
   108 Broy./Diag. 0.10E+00    5.3     0.01792255       -75.7121242007  4.02E-03
   109 Broy./Diag. 0.10E+00    5.3     0.02134408       -75.7062073207  5.92E-03
   110 Broy./Diag. 0.10E+00    5.5     0.02464733       -75.6972490063  8.96E-03
   111 Broy./Diag. 0.10E+00    5.5     0.03094257       -75.6829305585  1.43E-02
   112 Broy./Diag. 0.10E+00    5.3     0.04200299       -75.6608586152  2.21E-02
   113 Broy./Diag. 0.10E+00    5.4     0.05470596       -75.6297126652  3.11E-02
   114 Broy./Diag. 0.10E+00    5.4     0.06581043       -75.5932612481  3.65E-02
   115 Broy./Diag. 0.10E+00    5.3     0.07341021       -75.5489713869  4.43E-02
   116 Broy./Diag. 0.10E+00    5.4     0.07481556       -75.4987551322  5.02E-02
   117 Broy./Diag. 0.10E+00    5.4     0.06960981       -75.4478870693  5.09E-02
   118 Broy./Diag. 0.10E+00    5.3     0.05998215       -75.4019677963  4.59E-02
   119 Broy./Diag. 0.10E+00    5.3     0.04862082       -75.3648313672  3.71E-02
   120 Broy./Diag. 0.10E+00    5.3     0.03773985       -75.3370590541  2.78E-02
   121 Broy./Diag. 0.10E+00    5.4     0.02809544       -75.3171869701  1.99E-02
   122 Broy./Diag. 0.10E+00    5.4     0.02200502       -75.2953225038  2.19E-02
   123 Broy./Diag. 0.10E+00    5.4     0.01939269       -75.2888986283  6.42E-03
   124 Broy./Diag. 0.10E+00    5.4     0.01633264       -75.2737244161  1.52E-02
   125 Broy./Diag. 0.10E+00    5.3     0.01396392       -75.2732653197  4.59E-04
   126 Broy./Diag. 0.10E+00    5.3     0.01224504       -75.2721520032  1.11E-03
   127 Broy./Diag. 0.10E+00    5.4     0.01163429       -75.2735721559 -1.42E-03
   128 Broy./Diag. 0.10E+00    5.4     0.01718858       -75.4348331205 -1.61E-01
   129 Broy./Diag. 0.10E+00    5.4     0.02058639       -75.4614442767 -2.66E-02
   130 Broy./Diag. 0.10E+00    5.4     0.05131102       -75.5017852979 -4.03E-02
   131 Broy./Diag. 0.10E+00    5.3     0.04667093       -75.5376829933 -3.59E-02
   132 Broy./Diag. 0.10E+00    5.4     0.04006109       -75.5215835475  1.61E-02
   133 Broy./Diag. 0.10E+00    5.3     0.04102213       -75.6780919733 -1.57E-01
   134 Broy./Diag. 0.10E+00    5.4     0.11442218       -75.6463850171  3.17E-02
   135 Broy./Diag. 0.10E+00    5.4     0.07166010       -75.8225565094 -1.76E-01
   136 Broy./Diag. 0.10E+00    5.4     0.07042985       -75.9496945680 -1.27E-01
   137 Broy./Diag. 0.10E+00    5.4     0.06008920       -75.9777061665 -2.80E-02
   138 Broy./Diag. 0.10E+00    5.4     0.08984141       -75.6614177306  3.16E-01
   139 Broy./Diag. 0.10E+00    5.3     0.07217909       -75.5490384194  1.12E-01

 *** WARNING in pw/ps_wavelet_methods.F:238 :: Density non-zero on the ***
 *** edges of the unit cell: wrong results in WAVELET solver           ***

   140 Broy./Diag. 0.10E+00    5.3     0.04654355       -75.6555097483 -1.06E-01

 *** WARNING in pw/ps_wavelet_methods.F:238 :: Density non-zero on the ***
 *** edges of the unit cell: wrong results in WAVELET solver           ***

   141 Broy./Diag. 0.10E+00    5.3     0.03797003       -75.6965439284 -4.10E-02

 *** WARNING in pw/ps_wavelet_methods.F:238 :: Density non-zero on the ***
 *** edges of the unit cell: wrong results in WAVELET solver           ***

   142 Broy./Diag. 0.10E+00    5.4     0.04847481       -75.6693169231  2.72E-02
   143 Broy./Diag. 0.10E+00    5.3     0.03623310       -75.5908924832  7.84E-02
   144 Broy./Diag. 0.10E+00    5.4     0.03748715       -75.6152729643 -2.44E-02
   145 Broy./Diag. 0.10E+00    5.4     0.03380431       -75.6614050020 -4.61E-02
   146 Broy./Diag. 0.10E+00    5.4     0.05969356       -75.7063793098 -4.50E-02
   147 Broy./Diag. 0.10E+00    5.3     0.04946097       -75.6802701280  2.61E-02
   148 Broy./Diag. 0.10E+00    5.3     0.05292318       -75.6856719227 -5.40E-03
   149 Broy./Diag. 0.10E+00    5.4     0.07927167       -75.7487840893 -6.31E-02
   150 Broy./Diag. 0.10E+00    5.3     0.07551435       -75.7672148073 -1.84E-02
   151 Broy./Diag. 0.10E+00    5.3     0.11455655       -75.8748536317 -1.08E-01
   152 Broy./Diag. 0.10E+00    5.3     0.09665691       -75.8975301949 -2.27E-02
   153 Broy./Diag. 0.10E+00    5.4     0.06597140       -75.8671668709  3.04E-02
   154 Broy./Diag. 0.10E+00    5.4     0.05395328       -75.8881885602 -2.10E-02
   155 Broy./Diag. 0.10E+00    5.3     0.03482496       -75.9247518610 -3.66E-02
   156 Broy./Diag. 0.10E+00    5.3     0.02906313       -75.9534676636 -2.87E-02
   157 Broy./Diag. 0.10E+00    5.3     0.02552533       -75.9089398336  4.45E-02
   158 Broy./Diag. 0.10E+00    5.4     0.02402628       -75.8749241101  3.40E-02
   159 Broy./Diag. 0.10E+00    5.4     0.02722144       -75.8493086864  2.56E-02
   160 Broy./Diag. 0.10E+00    5.3     0.03565035       -75.8464941613  2.81E-03
   161 Broy./Diag. 0.10E+00    5.4     0.08266162       -75.8495961944 -3.10E-03
   162 Broy./Diag. 0.10E+00    5.4     0.06750588       -75.6865491765  1.63E-01

 *** WARNING in pw/ps_wavelet_methods.F:238 :: Density non-zero on the ***
 *** edges of the unit cell: wrong results in WAVELET solver           ***

   163 Broy./Diag. 0.10E+00    5.3     0.05716912       -75.6534149770  3.31E-02

 *** WARNING in pw/ps_wavelet_methods.F:238 :: Density non-zero on the ***
 *** edges of the unit cell: wrong results in WAVELET solver           ***

   164 Broy./Diag. 0.10E+00    5.3     0.02341082       -75.7361408472 -8.27E-02

 *** WARNING in pw/ps_wavelet_methods.F:238 :: Density non-zero on the ***
 *** edges of the unit cell: wrong results in WAVELET solver           ***

   165 Broy./Diag. 0.10E+00    5.4     0.02043451       -75.8492391027 -1.13E-01

 *** WARNING in pw/ps_wavelet_methods.F:238 :: Density non-zero on the ***
 *** edges of the unit cell: wrong results in WAVELET solver           ***

   166 Broy./Diag. 0.10E+00    5.4     0.02882433       -75.8676714958 -1.84E-02
   167 Broy./Diag. 0.10E+00    5.3     0.01363498       -75.8131941425  5.45E-02
   168 Broy./Diag. 0.10E+00    5.3     0.00371103       -75.7738968142  3.93E-02
   169 Broy./Diag. 0.10E+00    5.4     0.04727553       -75.6995397401  7.44E-02
   170 Broy./Diag. 0.10E+00    5.4     0.03426072       -75.6423289605  5.72E-02
   171 Broy./Diag. 0.10E+00    5.4     0.03022416       -75.6037068448  3.86E-02
   172 Broy./Diag. 0.10E+00    5.4     0.07566423       -75.6734205009 -6.97E-02
   173 Broy./Diag. 0.10E+00    5.4     0.07660455       -75.7579058217 -8.45E-02
   174 Broy./Diag. 0.10E+00    5.3     0.07127773       -75.7760680576 -1.82E-02
   175 Broy./Diag. 0.10E+00    5.3     0.04178459       -75.7951270666 -1.91E-02
   176 Broy./Diag. 0.10E+00    5.3     0.02510043       -75.8372355876 -4.21E-02
   177 Broy./Diag. 0.10E+00    5.4     0.01084251       -75.8508449147 -1.36E-02
   178 Broy./Diag. 0.10E+00    5.4     0.00840513       -75.8576604795 -6.82E-03
   179 Broy./Diag. 0.10E+00    5.3     0.01811523       -75.8408452743  1.68E-02
   180 Broy./Diag. 0.10E+00    5.3     0.02526590       -75.8476591058 -6.81E-03
   181 Broy./Diag. 0.10E+00    5.4     0.00955618       -75.8248255488  2.28E-02
   182 Broy./Diag. 0.10E+00    5.3     0.07763583       -75.7586564713  6.62E-02
   183 Broy./Diag. 0.10E+00    5.3     0.06147720       -75.7804120297 -2.18E-02
   184 Broy./Diag. 0.10E+00    5.3     0.05310609       -75.7925515357 -1.21E-02
   185 Broy./Diag. 0.10E+00    5.4     0.05936997       -75.7775151157  1.50E-02
   186 Broy./Diag. 0.10E+00    5.4     0.04840239       -75.7551105409  2.24E-02
   187 Broy./Diag. 0.10E+00    5.3     0.03657045       -75.7281146149  2.70E-02
   188 Broy./Diag. 0.10E+00    5.3     0.03343504       -75.7306820707 -2.57E-03
   189 Broy./Diag. 0.10E+00    5.3     0.02855188       -75.7265394192  4.14E-03
   190 Broy./Diag. 0.10E+00    5.4     0.03653864       -75.7322379973 -5.70E-03
   191 Broy./Diag. 0.10E+00    5.3     0.04003158       -75.7264492920  5.79E-03
   192 Broy./Diag. 0.10E+00    5.4     0.02857444       -75.6990183980  2.74E-02
   193 Broy./Diag. 0.10E+00    5.4     0.02104049       -75.6699236336  2.91E-02
   194 Broy./Diag. 0.10E+00    5.5     0.01594825       -75.6479208740  2.20E-02
   195 Broy./Diag. 0.10E+00    5.4     0.00821028       -75.6268981988  2.10E-02
   196 Broy./Diag. 0.10E+00    5.3     0.06718409       -75.6624711648 -3.56E-02
   197 Broy./Diag. 0.10E+00    5.3     0.03389485       -75.7025085712 -4.00E-02
   198 Broy./Diag. 0.10E+00    5.4     0.08484033       -75.6031138321  9.94E-02
   199 Broy./Diag. 0.10E+00    5.3     0.09050638       -75.5611776027  4.19E-02
   200 Broy./Diag. 0.10E+00    5.4     0.06283768       -75.5621986430 -1.02E-03
   201 Broy./Diag. 0.10E+00    5.4     0.05449181       -75.5964130902 -3.42E-02
   202 Broy./Diag. 0.10E+00    5.4     0.08203518       -75.6662937164 -6.99E-02
   203 Broy./Diag. 0.10E+00    5.3     0.03844944       -75.7194760186 -5.32E-02
   204 Broy./Diag. 0.10E+00    5.5     0.03969189       -75.7370407983 -1.76E-02
   205 Broy./Diag. 0.10E+00    5.4     0.04704615       -75.7404894438 -3.45E-03
   206 Broy./Diag. 0.10E+00    5.5     0.05972672       -75.7514703937 -1.10E-02
   207 Broy./Diag. 0.10E+00    5.3     0.06587965       -75.7446469943  6.82E-03
   208 Broy./Diag. 0.10E+00    5.3     0.07069832       -75.7340716155  1.06E-02
   209 Broy./Diag. 0.10E+00    5.4     0.09110621       -75.7674215329 -3.33E-02
   210 Broy./Diag. 0.10E+00    5.4     0.05785655       -75.7434002241  2.40E-02
   211 Broy./Diag. 0.10E+00    5.3     0.02762191       -75.6935954754  4.98E-02
   212 Broy./Diag. 0.10E+00    5.3     0.02177494       -75.6819039310  1.17E-02
   213 Broy./Diag. 0.10E+00    5.3     0.02599056       -75.6536424177  2.83E-02
   214 Broy./Diag. 0.10E+00    5.3     0.02609130       -75.6326382730  2.10E-02
   215 Broy./Diag. 0.10E+00    5.3     0.02206556       -75.6107594059  2.19E-02
   216 Broy./Diag. 0.10E+00    5.3     0.02758650       -75.5994019457  1.14E-02
   217 Broy./Diag. 0.10E+00    5.4     0.08050059       -75.5617434179  3.77E-02
   218 Broy./Diag. 0.10E+00    5.4     0.08961330       -75.5570186298  4.72E-03
   219 Broy./Diag. 0.10E+00    5.4     0.04346370       -75.6046937120 -4.77E-02
   220 Broy./Diag. 0.10E+00    5.3     0.09939046       -75.7401402299 -1.35E-01
   221 Broy./Diag. 0.10E+00    5.3     0.08838863       -75.8506907309 -1.11E-01
   222 Broy./Diag. 0.10E+00    5.3     0.03389050       -75.8156395251  3.51E-02
   223 Broy./Diag. 0.10E+00    5.4     0.02967857       -75.7688250182  4.68E-02
   224 Broy./Diag. 0.10E+00    5.3     0.02643482       -75.7855800299 -1.68E-02
   225 Broy./Diag. 0.10E+00    5.4     0.03270510       -75.8021034637 -1.65E-02
   226 Broy./Diag. 0.10E+00    5.3     0.03096663       -75.7815673818  2.05E-02
   227 Broy./Diag. 0.10E+00    5.3     0.03179546       -75.7708358154  1.07E-02
   228 Broy./Diag. 0.10E+00    5.4     0.03983891       -75.7864003889 -1.56E-02
   229 Broy./Diag. 0.10E+00    5.3     0.03927272       -75.7859710822  4.29E-04
   230 Broy./Diag. 0.10E+00    5.3     0.03462254       -75.7748727964  1.11E-02
   231 Broy./Diag. 0.10E+00    5.3     0.04201971       -75.7534741801  2.14E-02
   232 Broy./Diag. 0.10E+00    5.3     0.03939095       -75.7242304436  2.92E-02
   233 Broy./Diag. 0.10E+00    5.4     0.03519287       -75.7053300572  1.89E-02
   234 Broy./Diag. 0.10E+00    5.4     0.03966030       -75.6887168243  1.66E-02
   235 Broy./Diag. 0.10E+00    5.3     0.04957078       -75.6703070050  1.84E-02
   236 Broy./Diag. 0.10E+00    5.3     0.04961197       -75.6368051559  3.35E-02
   237 Broy./Diag. 0.10E+00    5.3     0.04800625       -75.6048964358  3.19E-02
   238 Broy./Diag. 0.10E+00    5.4     0.07593387       -75.5622587605  4.26E-02
   239 Broy./Diag. 0.10E+00    5.4     0.06678281       -75.4793716884  8.29E-02
   240 Broy./Diag. 0.10E+00    5.3     0.05985023       -75.4257725206  5.36E-02
   241 Broy./Diag. 0.10E+00    5.5     0.05441045       -75.3920097225  3.38E-02
   242 Broy./Diag. 0.10E+00    5.3     0.07590745       -75.3612796623  3.07E-02
   243 Broy./Diag. 0.10E+00    5.4     0.06118553       -75.3370349786  2.42E-02
   244 Broy./Diag. 0.10E+00    5.3     0.04732133       -75.3544329321 -1.74E-02
   245 Broy./Diag. 0.10E+00    5.3     0.05250282       -75.3816001681 -2.72E-02
   246 Broy./Diag. 0.10E+00    5.5     0.10116095       -75.5585770360 -1.77E-01
   247 Broy./Diag. 0.10E+00    5.3     0.18641847       -75.6410343249 -8.25E-02
   248 Broy./Diag. 0.10E+00    5.3     0.13994860       -75.6753306659 -3.43E-02
   249 Broy./Diag. 0.10E+00    5.4     0.06562072       -75.6067597897  6.86E-02
   250 Broy./Diag. 0.10E+00    5.4     0.07139733       -75.6895564920 -8.28E-02
   251 Broy./Diag. 0.10E+00    5.4     0.12855169       -75.8281174492 -1.39E-01
   252 Broy./Diag. 0.10E+00    5.3     0.07153229       -75.8310172772 -2.90E-03
   253 Broy./Diag. 0.10E+00    5.3     0.04506187       -75.7849046852  4.61E-02
   254 Broy./Diag. 0.10E+00    5.3     0.02403134       -75.7875451894 -2.64E-03
   255 Broy./Diag. 0.10E+00    5.3     0.02028536       -75.8042686365 -1.67E-02
   256 Broy./Diag. 0.10E+00    5.3     0.02436807       -75.8022737762  1.99E-03
   257 Broy./Diag. 0.10E+00    5.4     0.01102359       -75.7982951391  3.98E-03
   258 Broy./Diag. 0.10E+00    5.3     0.00977533       -75.7802056462  1.81E-02
   259 Broy./Diag. 0.10E+00    5.3     0.01967969       -75.7571823425  2.30E-02
   260 Broy./Diag. 0.10E+00    5.3     0.03050165       -75.7524012746  4.78E-03
   261 Broy./Diag. 0.10E+00    5.4     0.02727559       -75.7530481913 -6.47E-04
   262 Broy./Diag. 0.10E+00    5.3     0.01569263       -75.7523235764  7.25E-04
   263 Broy./Diag. 0.10E+00    5.4     0.01343635       -75.7593384027 -7.01E-03
   264 Broy./Diag. 0.10E+00    5.3     0.01722909       -75.7631687827 -3.83E-03
   265 Broy./Diag. 0.10E+00    5.4     0.01168893       -75.7591687095  4.00E-03
   266 Broy./Diag. 0.10E+00    5.3     0.00938525       -75.7606950812 -1.53E-03
   267 Broy./Diag. 0.10E+00    5.4     0.00683544       -75.7652016655 -4.51E-03
   268 Broy./Diag. 0.10E+00    5.4     0.00681184       -75.7669965998 -1.79E-03
   269 Broy./Diag. 0.10E+00    5.4     0.00701323       -75.7688917249 -1.90E-03
   270 Broy./Diag. 0.10E+00    5.3     0.03337739       -75.7768285240 -7.94E-03
   271 Broy./Diag. 0.10E+00    5.3     0.02792619       -75.7785456972 -1.72E-03
   272 Broy./Diag. 0.10E+00    5.3     0.01820568       -75.7779166738  6.29E-04
   273 Broy./Diag. 0.10E+00    5.4     0.01806647       -75.7784981756 -5.82E-04
   274 Broy./Diag. 0.10E+00    5.5     0.02480146       -75.7805883844 -2.09E-03
   275 Broy./Diag. 0.10E+00    5.3     0.02967517       -75.7837381004 -3.15E-03
   276 Broy./Diag. 0.10E+00    5.4     0.02920692       -75.7805736371  3.16E-03
   277 Broy./Diag. 0.10E+00    5.4     0.02019055       -75.7596666085  2.09E-02
   278 Broy./Diag. 0.10E+00    5.4     0.01916233       -75.7364653982  2.32E-02
   279 Broy./Diag. 0.10E+00    5.4     0.01690262       -75.7351114174  1.35E-03
   280 Broy./Diag. 0.10E+00    5.3     0.02098151       -75.7289843085  6.13E-03
