 DBCSR| CPU Multiplication driver                                           BLAS (U)
 DBCSR| Multrec recursion limit                                              512 (U)
 DBCSR| Multiplication stack size                                           1000 (D)
 DBCSR| Maximum elements for images                                    UNLIMITED (U)
 DBCSR| Multiplicative factor virtual images                                   1 (U)
 DBCSR| Use multiplication densification                                       T (D)
 DBCSR| Multiplication size stacks                                             3 (U)
 DBCSR| Use memory pool for CPU allocation                                     F (U)
 DBCSR| Number of 3D layers                                               SINGLE (U)
 DBCSR| Use MPI memory allocation                                              F (U)
 DBCSR| Use RMA algorithm                                                      F (U)
 DBCSR| Use Communication thread                                               T (U)
 DBCSR| Communication thread load                                             75 (D)
 DBCSR| MPI: My process id                                                     0
 DBCSR| MPI: Number of processes                                              48
 DBCSR| OMP: Current number of threads                                         4
 DBCSR| OMP: Max number of threads                                             4
 DBCSR| Split modifier for TAS multiplication algorithm                  1.0E+00 (U)


  **** **** ******  **  PROGRAM STARTED AT               2025-03-19 00:58:24.317
 ***** ** ***  *** **   PROGRAM STARTED ON                          i01r11c03s09
 **    ****   ******    PROGRAM STARTED BY                               di38fab
 ***** **    ** ** **   PROGRAM PROCESS ID                               1126820
  **** **  *******  **  PROGRAM STARTED IN /hppfs/scratch/04/di38fab/05_MOL/W4-1
                                           1+ALK/bn3pi/aug-cc-pVQZ/GW+BSE

 CP2K| version string:                 CP2K version 2025.1 (Development Version)
 CP2K| source code revision number:                                  git:d2e611a
 CP2K| cp2kflags: omp libint fftw3 libxc parallel scalapack max_contr=4         
 CP2K| is freely available from                            https://www.cp2k.org/
 CP2K| Program compiled at                       Thu 06 Mar 2025 05:09:20 PM CET
 CP2K| Program compiled on                                               login02
 CP2K| Program compiled for                                        Supermuc-foss
 CP2K| Data directory path                  /hppfs/work/pn36zo/di38fab/cp2k/data
 CP2K| Input file name                                                    GW.inp

 GLOBAL| Force Environment number                                              1
 GLOBAL| Basis set file name            /hppfs/scratch/04/di38fab/04_TMD/BASIS_A
 GLOBAL| Potential file name            /hppfs/work/pn36zo/di38fab/cp2k/data/ALL
 GLOBAL| MM Potential file name                                     MM_POTENTIAL
 GLOBAL| Coordinate file name                                      __STD_INPUT__
 GLOBAL| Method name                                                        CP2K
 GLOBAL| Project name                                                       MoS2
 GLOBAL| Run type                                                         ENERGY
 GLOBAL| FFT library                                                       FFTW3
 GLOBAL| Diagonalization library                                       ScaLAPACK
 GLOBAL| DGEMM library                                                      BLAS
 GLOBAL| Orthonormality check for eigenvectors                          DISABLED
 GLOBAL| Matrix multiplication library                                 ScaLAPACK
 GLOBAL| All-to-all communication in single precision                          F
 GLOBAL| FFTs using library dependent lengths                                  F
 GLOBAL| Grid backend                                                       AUTO
 GLOBAL| Global print level                                               MEDIUM
 GLOBAL| MPI I/O enabled                                                       T
 GLOBAL| Total number of message passing processes                            48
 GLOBAL| Number of threads for this process                                    4
 GLOBAL| This output is from process                                           0
 GLOBAL| OpenMP stack size per thread (OMP_STACKSIZE)                    default
 GLOBAL| CPU model name             Intel(R) Xeon(R) Platinum 8174 CPU @ 3.10GHz

 MEMORY| system memory details [Kb]
 MEMORY|                        rank 0           min           max       average
 MEMORY| MemTotal             98436664      98436660      98436664      98436663
 MEMORY| MemFree              83829836      83644948      83829836      83761355
 MEMORY| Buffers                     0             0             0             0
 MEMORY| Cached                2618488       2594596       2618488       2608071
 MEMORY| Slab                  1247584       1242216       1257636       1248288
 MEMORY| SReclaimable           275840        265420        279372        274659
 MEMORY| MemLikelyFree        86724164      86532640      86724164      86644085


 *** Fundamental physical constants (SI units) ***

 *** Literature: B. J. Mohr and B. N. Taylor,
 ***             CODATA recommended values of the fundamental physical
 ***             constants: 2006, Web Version 5.1
 ***             http://physics.nist.gov/constants

 Speed of light in vacuum [m/s]                             2.99792458000000E+08
 Magnetic constant or permeability of vacuum [N/A**2]       1.25663706143592E-06
 Electric constant or permittivity of vacuum [F/m]          8.85418781762039E-12
 Planck constant (h) [J*s]                                  6.62606896000000E-34
 Planck constant (h-bar) [J*s]                              1.05457162825177E-34
 Elementary charge [C]                                      1.60217648700000E-19
 Electron mass [kg]                                         9.10938215000000E-31
 Electron g factor [ ]                                     -2.00231930436220E+00
 Proton mass [kg]                                           1.67262163700000E-27
 Fine-structure constant                                    7.29735253760000E-03
 Rydberg constant [1/m]                                     1.09737315685270E+07
 Avogadro constant [1/mol]                                  6.02214179000000E+23
 Boltzmann constant [J/K]                                   1.38065040000000E-23
 Atomic mass unit [kg]                                      1.66053878200000E-27
 Bohr radius [m]                                            5.29177208590000E-11

 *** Conversion factors ***

 [u] -> [a.u.]                                              1.82288848426455E+03
 [Angstrom] -> [Bohr] = [a.u.]                              1.88972613288564E+00
 [a.u.] = [Bohr] -> [Angstrom]                              5.29177208590000E-01
 [a.u.] -> [s]                                              2.41888432650478E-17
 [a.u.] -> [fs]                                             2.41888432650478E-02
 [a.u.] -> [J]                                              4.35974393937059E-18
 [a.u.] -> [N]                                              8.23872205491840E-08
 [a.u.] -> [K]                                              3.15774647902944E+05
 [a.u.] -> [kJ/mol]                                         2.62549961709828E+03
 [a.u.] -> [kcal/mol]                                       6.27509468713739E+02
 [a.u.] -> [Pa]                                             2.94210107994716E+13
 [a.u.] -> [bar]                                            2.94210107994716E+08
 [a.u.] -> [atm]                                            2.90362800883016E+08
 [a.u.] -> [eV]                                             2.72113838565563E+01
 [a.u.] -> [Hz]                                             6.57968392072181E+15
 [a.u.] -> [1/cm] (wave numbers)                            2.19474631370540E+05
 [a.u./Bohr**2] -> [1/cm]                                   5.14048714338585E+03
 

 CELL_TOP| Volume [angstrom^3]:                                     27000.000000
 CELL_TOP| Vector a [angstrom    30.000     0.000     0.000   |a| =    30.000000
 CELL_TOP| Vector b [angstrom     0.000    30.000     0.000   |b| =    30.000000
 CELL_TOP| Vector c [angstrom     0.000     0.000    30.000   |c| =    30.000000
 CELL_TOP| Angle (b,c), alpha [degree]:                                90.000000
 CELL_TOP| Angle (a,c), beta  [degree]:                                90.000000
 CELL_TOP| Angle (a,b), gamma [degree]:                                90.000000
 CELL_TOP| Numerically orthorhombic:                                         YES
 CELL_TOP| Periodicity                                                      NONE

 GENERATE|  Preliminary Number of Bonds generated:                             0
 GENERATE|  Achieved consistency in connectivity generation.

 CELL| Volume [angstrom^3]:                                         27000.000000
 CELL| Vector a [angstrom]:      30.000     0.000     0.000   |a| =    30.000000
 CELL| Vector b [angstrom]:       0.000    30.000     0.000   |b| =    30.000000
 CELL| Vector c [angstrom]:       0.000     0.000    30.000   |c| =    30.000000
 CELL| Angle (b,c), alpha [degree]:                                    90.000000
 CELL| Angle (a,c), beta  [degree]:                                    90.000000
 CELL| Angle (a,b), gamma [degree]:                                    90.000000
 CELL| Numerically orthorhombic:                                             YES
 CELL| Periodicity                                                          NONE

 CELL_REF| Volume [angstrom^3]:                                     27000.000000
 CELL_REF| Vector a [angstrom    30.000     0.000     0.000   |a| =    30.000000
 CELL_REF| Vector b [angstrom     0.000    30.000     0.000   |b| =    30.000000
 CELL_REF| Vector c [angstrom     0.000     0.000    30.000   |c| =    30.000000
 CELL_REF| Angle (b,c), alpha [degree]:                                90.000000
 CELL_REF| Angle (a,c), beta  [degree]:                                90.000000
 CELL_REF| Angle (a,b), gamma [degree]:                                90.000000
 CELL_REF| Numerically orthorhombic:                                         YES
 CELL_REF| Periodicity                                                      NONE

 *******************************************************************************
 *******************************************************************************
 **                                                                           **
 **     #####                         ##              ##                      **
 **    ##   ##            ##          ##              ##                      **
 **   ##     ##                       ##            ######                    **
 **   ##     ##  ##   ##  ##   #####  ##  ##   ####   ##    #####    #####    **
 **   ##     ##  ##   ##  ##  ##      ## ##   ##      ##   ##   ##  ##   ##   **
 **   ##  ## ##  ##   ##  ##  ##      ####     ###    ##   ######   ######    **
 **    ##  ###   ##   ##  ##  ##      ## ##      ##   ##   ##       ##        **
 **     #######   #####   ##   #####  ##  ##  ####    ##    #####   ##        **
 **           ##                                                    ##        **
 **                                                                           **
 **                                                ... make the atoms dance   **
 **                                                                           **
 **            Copyright (C) by CP2K developers group (2000-2025)             **
 **                      J. Chem. Phys. 152, 194103 (2020)                    **
 **                                                                           **
 *******************************************************************************

 DFT| Spin restricted Kohn-Sham (RKS) calculation                            RKS
 DFT| Multiplicity                                                             1
 DFT| Number of spin states                                                    1
 DFT| Charge                                                                   0
 DFT| Self-interaction correction (SIC)                                       NO
 DFT| Cutoffs: density                                              1.000000E-10
 DFT|          gradient                                             1.000000E-10
 DFT|          tau                                                  1.000000E-10
 DFT|          cutoff_smoothing_range                               0.000000E+00
 DFT| XC density smoothing                                                  NONE
 DFT| XC derivatives                                                          PW

 FUNCTIONAL| PBE:
 FUNCTIONAL| J.P.Perdew, K.Burke, M.Ernzerhof, Phys. Rev. Letter, vol. 77, n 18,
 FUNCTIONAL|  pp. 3865-3868, (1996)sx=0.750sc=1.000{spin unpolarized}           


 QS| Method:                                                                GAPW
 QS| Density plane wave grid type                        NON-SPHERICAL FULLSPACE
 QS| Number of grid levels:                                                    4
 QS| Density cutoff [a.u.]:                                                250.0
 QS| Multi grid cutoff [a.u.]: 1) grid level                               250.0
 QS|                           2) grid level                                83.3
 QS|                           3) grid level                                27.8
 QS|                           4) grid level                                 9.3
 QS| Grid level progression factor:                                          3.0
 QS| Relative density cutoff [a.u.]:                                        50.0
 QS| Interaction thresholds: eps_pgf_orb:                                1.0E-12
 QS|                         eps_filter_matrix:                          0.0E+00
 QS|                         eps_core_charge:                            1.0E-14
 QS|                         eps_rho_gspace:                             1.0E-12
 QS|                         eps_rho_rspace:                             1.0E-12
 QS|                         eps_gvg_rspace:                             1.0E-06
 QS|                         eps_ppl:                                    1.0E-02
 QS|                         eps_ppnl:                                   1.0E-08
 QS| GAPW|      One center basis from orbital basis primitives
 QS| GAPW|                   eps_fit:                                    1.0E-04
 QS| GAPW|                   eps_iso:                                    1.0E-12
 QS| GAPW|                   eps_svd:                                    1.0E-08
 QS| GAPW|                   eps_cpc:                                    1.0E-12
 QS| GAPW|   atom-r-grid: quadrature:                                     GC_LOG
 QS| GAPW|      atom-s-grid:  max l :                                          8
 QS| GAPW|      max_l_rho0 :                                                   2


 ATOMIC KIND INFORMATION

  1. Atomic kind: B                                     Number of atoms:       1

     Orbital Basis Set                                               aug-cc-pVQZ

       Number of orbital shell sets:                                          10
       Number of orbital shells:                                              20
       Number of primitive Cartesian functions:                               29
       Number of Cartesian basis functions:                                  105
       Number of spherical basis functions:                                   80
       Norm type:                                                              2

       Normalised Cartesian orbitals:

                        Set   Shell   Orbital            Exponent    Coefficient

                          1       1    1px               0.018780       0.009910
                          1       1    1py               0.018780       0.009910
                          1       1    1pz               0.018780       0.009910

                          2       1    1s                0.027210       0.047748

                          3       1    1dx2              0.046600       0.007693
                          3       1    1dxy              0.046600       0.013324
                          3       1    1dxz              0.046600       0.013324
                          3       1    1dy2              0.046600       0.007693
                          3       1    1dyz              0.046600       0.013324
                          3       1    1dz2              0.046600       0.007693

                          4       1    1px              22.260000       0.000000
                                                         5.058000       0.000000
                                                         1.487000       0.000000
                                                         0.507100       0.609968
                                                         0.181200       0.000000
                                                         0.064630       0.000000
                          4       1    1py              22.260000       0.000000
                                                         5.058000       0.000000
                                                         1.487000       0.000000
                                                         0.507100       0.609968
                                                         0.181200       0.000000
                                                         0.064630       0.000000
                          4       1    1pz              22.260000       0.000000
                                                         5.058000       0.000000
                                                         1.487000       0.000000
                                                         0.507100       0.609968
                                                         0.181200       0.000000
                                                         0.064630       0.000000

                          4       2    2px              22.260000       0.351148
                                                         5.058000       0.359030
                                                         1.487000       0.309695
                                                         0.507100       0.202398
                                                         0.181200       0.079550
                                                         0.064630       0.011983
                          4       2    2py              22.260000       0.351148
                                                         5.058000       0.359030
                                                         1.487000       0.309695
                                                         0.507100       0.202398
                                                         0.181200       0.079550
                                                         0.064630       0.011983
                          4       2    2pz              22.260000       0.351148
                                                         5.058000       0.359030
                                                         1.487000       0.309695
                                                         0.507100       0.202398
                                                         0.181200       0.079550
                                                         0.064630       0.011983

                          4       3    3px              22.260000       0.000000
                                                         5.058000       0.000000
                                                         1.487000       0.000000
                                                         0.507100       0.000000
                                                         0.181200       0.168515
                                                         0.064630       0.000000
                          4       3    3py              22.260000       0.000000
                                                         5.058000       0.000000
                                                         1.487000       0.000000
                                                         0.507100       0.000000
                                                         0.181200       0.168515
                                                         0.064630       0.000000
                          4       3    3pz              22.260000       0.000000
                                                         5.058000       0.000000
                                                         1.487000       0.000000
                                                         0.507100       0.000000
                                                         0.181200       0.168515
                                                         0.064630       0.000000

                          4       4    4px              22.260000       0.000000
                                                         5.058000       0.000000
                                                         1.487000       0.000000
                                                         0.507100       0.000000
                                                         0.181200       0.000000
                                                         0.064630       0.046450
                          4       4    4py              22.260000       0.000000
                                                         5.058000       0.000000
                                                         1.487000       0.000000
                                                         0.507100       0.000000
                                                         0.181200       0.000000
                                                         0.064630       0.046450
                          4       4    4pz              22.260000       0.000000
                                                         5.058000       0.000000
                                                         1.487000       0.000000
                                                         0.507100       0.000000
                                                         0.181200       0.000000
                                                         0.064630       0.046450

                          5       1    1s            23870.000000       0.120443
                                                      3575.000000       0.226373
                                                       812.800000       0.390571
                                                       229.700000       0.628627
                                                        74.690000       0.931356
                                                        26.810000       1.203331
                                                        10.320000       1.234931
                                                         4.178000       0.840442
                                                         1.727000       0.241946
                                                         0.470400       0.006237
                                                         0.189600      -0.000810
                                                         0.073940       0.000114

                          5       2    2s            23870.000000       0.000000
                                                      3575.000000       0.000000
                                                       812.800000       0.000000
                                                       229.700000       0.000000
                                                        74.690000       0.000000
                                                        26.810000       0.000000
                                                        10.320000       0.000000
                                                         4.178000       0.000000
                                                         1.727000       0.000000
                                                         0.470400       0.404819
                                                         0.189600       0.000000
                                                         0.073940       0.000000

                          5       3    3s            23870.000000       0.000000
                                                      3575.000000       0.000000
                                                       812.800000       0.000000
                                                       229.700000       0.000000
                                                        74.690000       0.000000
                                                        26.810000       0.000000
                                                        10.320000       0.000000
                                                         4.178000       0.000000
                                                         1.727000       0.000000
                                                         0.470400       0.000000
                                                         0.189600       0.204781
                                                         0.073940       0.000000

                          5       4    4s            23870.000000      -0.024636
                                                      3575.000000      -0.045802
                                                       812.800000      -0.078657
                                                       229.700000      -0.128804
                                                        74.690000      -0.191595
                                                        26.810000      -0.263377
                                                        10.320000      -0.291408
                                                         4.178000      -0.275137
                                                         1.727000      -0.132141
                                                         0.470400       0.105989
                                                         0.189600       0.120137
                                                         0.073940       0.029357

                          5       5    5s            23870.000000       0.000000
                                                      3575.000000       0.000000
                                                       812.800000       0.000000
                                                       229.700000       0.000000
                                                        74.690000       0.000000
                                                        26.810000       0.000000
                                                        10.320000       0.000000
                                                         4.178000       0.000000
                                                         1.727000       0.000000
                                                         0.470400       0.000000
                                                         0.189600       0.000000
                                                         0.073940       0.101058

                          6       1    1fx3              0.113000       0.010899
                          6       1    1fx2y             0.113000       0.024371
                          6       1    1fx2z             0.113000       0.024371
                          6       1    1fxy2             0.113000       0.024371
                          6       1    1fxyz             0.113000       0.042211
                          6       1    1fxz2             0.113000       0.024371
                          6       1    1fy3              0.113000       0.010899
                          6       1    1fy2z             0.113000       0.024371
                          6       1    1fyz2             0.113000       0.024371
                          6       1    1fz3              0.113000       0.010899

                          7       1    1dx2              1.110000       1.975717
                                                         0.402000       0.000000
                                                         0.145000       0.000000
                          7       1    1dxy              1.110000       3.422042
                                                         0.402000       0.000000
                                                         0.145000       0.000000
                          7       1    1dxz              1.110000       3.422042
                                                         0.402000       0.000000
                                                         0.145000       0.000000
                          7       1    1dy2              1.110000       1.975717
                                                         0.402000       0.000000
                                                         0.145000       0.000000
                          7       1    1dyz              1.110000       3.422042
                                                         0.402000       0.000000
                                                         0.145000       0.000000
                          7       1    1dz2              1.110000       1.975717
                                                         0.402000       0.000000
                                                         0.145000       0.000000

                          7       2    2dx2              1.110000       0.000000
                                                         0.402000       0.334045
                                                         0.145000       0.000000
                          7       2    2dxy              1.110000       0.000000
                                                         0.402000       0.578583
                                                         0.145000       0.000000
                          7       2    2dxz              1.110000       0.000000
                                                         0.402000       0.578583
                                                         0.145000       0.000000
                          7       2    2dy2              1.110000       0.000000
                                                         0.402000       0.334045
                                                         0.145000       0.000000
                          7       2    2dyz              1.110000       0.000000
                                                         0.402000       0.578583
                                                         0.145000       0.000000
                          7       2    2dz2              1.110000       0.000000
                                                         0.402000       0.334045
                                                         0.145000       0.000000

                          7       3    3dx2              1.110000       0.000000
                                                         0.402000       0.000000
                                                         0.145000       0.056079
                          7       3    3dxy              1.110000       0.000000
                                                         0.402000       0.000000
                                                         0.145000       0.097132
                          7       3    3dxz              1.110000       0.000000
                                                         0.402000       0.000000
                                                         0.145000       0.097132
                          7       3    3dy2              1.110000       0.000000
                                                         0.402000       0.000000
                                                         0.145000       0.056079
                          7       3    3dyz              1.110000       0.000000
                                                         0.402000       0.000000
                                                         0.145000       0.097132
                          7       3    3dz2              1.110000       0.000000
                                                         0.402000       0.000000
                                                         0.145000       0.056079

                          8       1    1gx4              0.273000       0.031324
                          8       1    1gx3y             0.273000       0.082877
                          8       1    1gx3z             0.273000       0.082877
                          8       1    1gx2y2            0.273000       0.106993
                          8       1    1gx2yz            0.273000       0.185318
                          8       1    1gx2z2            0.273000       0.106993
                          8       1    1gxy3             0.273000       0.082877
                          8       1    1gxy2z            0.273000       0.185318
                          8       1    1gxyz2            0.273000       0.185318
                          8       1    1gxz3             0.273000       0.082877
                          8       1    1gy4              0.273000       0.031324
                          8       1    1gy3z             0.273000       0.082877
                          8       1    1gy2z2            0.273000       0.106993
                          8       1    1gyz3             0.273000       0.082877
                          8       1    1gz4              0.273000       0.031324

                          9       1    1fx3              0.882000       1.109836
                                                         0.311000       0.000000
                          9       1    1fx2y             0.882000       2.481669
                                                         0.311000       0.000000
                          9       1    1fx2z             0.882000       2.481669
                                                         0.311000       0.000000
                          9       1    1fxy2             0.882000       2.481669
                                                         0.311000       0.000000
                          9       1    1fxyz             0.882000       4.298376
                                                         0.311000       0.000000
                          9       1    1fxz2             0.882000       2.481669
                                                         0.311000       0.000000
                          9       1    1fy3              0.882000       1.109836
                                                         0.311000       0.000000
                          9       1    1fy2z             0.882000       2.481669
                                                         0.311000       0.000000
                          9       1    1fyz2             0.882000       2.481669
                                                         0.311000       0.000000
                          9       1    1fz3              0.882000       1.109836
                                                         0.311000       0.000000

                          9       2    2fx3              0.882000       0.000000
                                                         0.311000       0.106332
                          9       2    2fx2y             0.882000       0.000000
                                                         0.311000       0.237766
                          9       2    2fx2z             0.882000       0.000000
                                                         0.311000       0.237766
                          9       2    2fxy2             0.882000       0.000000
                                                         0.311000       0.237766
                          9       2    2fxyz             0.882000       0.000000
                                                         0.311000       0.411823
                          9       2    2fxz2             0.882000       0.000000
                                                         0.311000       0.237766
                          9       2    2fy3              0.882000       0.000000
                                                         0.311000       0.106332
                          9       2    2fy2z             0.882000       0.000000
                                                         0.311000       0.237766
                          9       2    2fyz2             0.882000       0.000000
                                                         0.311000       0.237766
                          9       2    2fz3              0.882000       0.000000
                                                         0.311000       0.106332

                         10       1    1gx4              0.673000       0.374522
                         10       1    1gx3y             0.673000       0.990891
                         10       1    1gx3z             0.673000       0.990891
                         10       1    1gx2y2            0.673000       1.279235
                         10       1    1gx2yz            0.673000       2.215700
                         10       1    1gx2z2            0.673000       1.279235
                         10       1    1gxy3             0.673000       0.990891
                         10       1    1gxy2z            0.673000       2.215700
                         10       1    1gxyz2            0.673000       2.215700
                         10       1    1gxz3             0.673000       0.990891
                         10       1    1gy4              0.673000       0.374522
                         10       1    1gy3z             0.673000       0.990891
                         10       1    1gy2z2            0.673000       1.279235
                         10       1    1gyz3             0.673000       0.990891
                         10       1    1gz4              0.673000       0.374522

     RI Auxiliary Basis Set                                    aug-cc-pVQZ-OPTRI

       Number of orbital shell sets:                                          19
       Number of orbital shells:                                              19
       Number of primitive Cartesian functions:                               19
       Number of Cartesian basis functions:                                  124
       Number of spherical basis functions:                                   89
       Norm type:                                                              2

       Normalised Cartesian orbitals:

                        Set   Shell   Orbital            Exponent    Coefficient

                          1       1    1px               0.028181       0.016458
                          1       1    1py               0.028181       0.016458
                          1       1    1pz               0.028181       0.016458

                          2       1    1s                0.047837       0.072901

                          3       1    1dx2              0.071125       0.016123
                          3       1    1dxy              0.071125       0.027926
                          3       1    1dxz              0.071125       0.027926
                          3       1    1dy2              0.071125       0.016123
                          3       1    1dyz              0.071125       0.027926
                          3       1    1dz2              0.071125       0.016123

                          4       1    1px               0.096867       0.077030
                          4       1    1py               0.096867       0.077030
                          4       1    1pz               0.096867       0.077030

                          5       1    1s                0.122949       0.147980

                          6       1    1fx3              0.207583       0.042819
                          6       1    1fx2y             0.207583       0.095746
                          6       1    1fx2z             0.207583       0.095746
                          6       1    1fxy2             0.207583       0.095746
                          6       1    1fxyz             0.207583       0.165837
                          6       1    1fxz2             0.207583       0.095746
                          6       1    1fy3              0.207583       0.042819
                          6       1    1fy2z             0.207583       0.095746
                          6       1    1fyz2             0.207583       0.095746
                          6       1    1fz3              0.207583       0.042819

                          7       1    1dx2              0.259143       0.154919
                          7       1    1dxy              0.259143       0.268327
                          7       1    1dxz              0.259143       0.268327
                          7       1    1dy2              0.259143       0.154919
                          7       1    1dyz              0.259143       0.268327
                          7       1    1dz2              0.259143       0.154919

                          8       1    1s                0.313912       0.298893

                          9       1    1px               0.336201       0.364913
                          9       1    1py               0.336201       0.364913
                          9       1    1pz               0.336201       0.364913

                         10       1    1gx4              0.449602       0.123513
                         10       1    1gx3y             0.449602       0.326785
                         10       1    1gx3z             0.449602       0.326785
                         10       1    1gx2y2            0.449602       0.421878
                         10       1    1gx2yz            0.449602       0.730713
                         10       1    1gx2z2            0.449602       0.421878
                         10       1    1gxy3             0.449602       0.326785
                         10       1    1gxy2z            0.449602       0.730713
                         10       1    1gxyz2            0.449602       0.730713
                         10       1    1gxz3             0.449602       0.326785
                         10       1    1gy4              0.449602       0.123513
                         10       1    1gy3z             0.449602       0.326785
                         10       1    1gy2z2            0.449602       0.421878
                         10       1    1gyz3             0.449602       0.326785
                         10       1    1gz4              0.449602       0.123513

                         11       1    1fx3              0.588390       0.446377
                         11       1    1fx2y             0.588390       0.998128
                         11       1    1fx2z             0.588390       0.998128
                         11       1    1fxy2             0.588390       0.998128
                         11       1    1fxyz             0.588390       1.728809
                         11       1    1fxz2             0.588390       0.998128
                         11       1    1fy3              0.588390       0.446377
                         11       1    1fy2z             0.588390       0.998128
                         11       1    1fyz2             0.588390       0.998128
                         11       1    1fz3              0.588390       0.446377

                         12       1    1dx2              0.602361       0.677890
                         12       1    1dxy              0.602361       1.174139
                         12       1    1dxz              0.602361       1.174139
                         12       1    1dy2              0.602361       0.677890
                         12       1    1dyz              0.602361       1.174139
                         12       1    1dz2              0.602361       0.677890

                         13       1    1hx5              0.771535       0.319338
                         13       1    1hx4y             0.771535       0.958013
                         13       1    1hx4z             0.771535       0.958013
                         13       1    1hx3y2            0.771535       1.463388
                         13       1    1hx3yz            0.771535       2.534663
                         13       1    1hx3z2            0.771535       1.463388
                         13       1    1hx2y3            0.771535       1.463388
                         13       1    1hx2y2z           0.771535       3.272236
                         13       1    1hx2yz2           0.771535       3.272236
                         13       1    1hx2z3            0.771535       1.463388
                         13       1    1hxy4             0.771535       0.958013
                         13       1    1hxy3z            0.771535       2.534663
                         13       1    1hxy2z2           0.771535       3.272236
                         13       1    1hxyz3            0.771535       2.534663
                         13       1    1hxz4             0.771535       0.958013
                         13       1    1hy5              0.771535       0.319338
                         13       1    1hy4z             0.771535       0.958013
                         13       1    1hy3z2            0.771535       1.463388
                         13       1    1hy2z3            0.771535       1.463388
                         13       1    1hyz4             0.771535       0.958013
                         13       1    1hz5              0.771535       0.319338

                         14       1    1px               1.113894       1.631154
                         14       1    1py               1.113894       1.631154
                         14       1    1pz               1.113894       1.631154

                         15       1    1gx4              1.174695       1.732724
                         15       1    1gx3y             1.174695       4.584358
                         15       1    1gx3z             1.174695       4.584358
                         15       1    1gx2y2            1.174695       5.918381
                         15       1    1gx2yz            1.174695      10.250936
                         15       1    1gx2z2            1.174695       5.918381
                         15       1    1gxy3             1.174695       4.584358
                         15       1    1gxy2z            1.174695      10.250936
                         15       1    1gxyz2            1.174695      10.250936
                         15       1    1gxz3             1.174695       4.584358
                         15       1    1gy4              1.174695       1.732724
                         15       1    1gy3z             1.174695       4.584358
                         15       1    1gy2z2            1.174695       5.918381
                         15       1    1gyz3             1.174695       4.584358
                         15       1    1gz4              1.174695       1.732724

                         16       1    1s                1.254695       0.844916

                         17       1    1dx2              1.661603       4.002508
                         17       1    1dxy              1.661603       6.932547
                         17       1    1dxz              1.661603       6.932547
                         17       1    1dy2              1.661603       4.002508
                         17       1    1dyz              1.661603       6.932547
                         17       1    1dz2              1.661603       4.002508

                         18       1    1fx3              2.320429       9.783249
                         18       1    1fx2y             2.320429      21.876009
                         18       1    1fx2z             2.320429      21.876009
                         18       1    1fxy2             2.320429      21.876009
                         18       1    1fxyz             2.320429      37.890359
                         18       1    1fxz2             2.320429      21.876009
                         18       1    1fy3              2.320429       9.783249
                         18       1    1fy2z             2.320429      21.876009
                         18       1    1fyz2             2.320429      21.876009
                         18       1    1fz3              2.320429       9.783249

                         19       1    1px               2.510235       4.503841
                         19       1    1py               2.510235       4.503841
                         19       1    1pz               2.510235       4.503841

       Atomic covalent radius [Angstrom]:                                  0.820

       Atomic van der Waals radius [Angstrom]:                             1.920

     The atoms of this atomic kind are PAW atoms (GAPW):
       Hard Gaussian function radius:                                      1.512
       Rho0 radius:                                                        1.512
       Maximum GTO radius used for PAW projector construction:            24.566

     GAPW Soft Basis Set                                        aug-cc-pVQZ_soft

       Number of orbital shell sets:                                          10
       Number of orbital shells:                                              20
       Number of primitive Cartesian functions:                               19
       Number of Cartesian basis functions:                                  105
       Number of spherical basis functions:                                   80
       Norm type:                                                              2

       Normalised Cartesian orbitals:

                        Set   Shell   Orbital            Exponent    Coefficient

                          1       1    1px               0.018780       0.009910
                          1       1    1py               0.018780       0.009910
                          1       1    1pz               0.018780       0.009910

                          2       1    1s                0.027210       0.047748

                          3       1    1dx2              0.046600       0.007693
                          3       1    1dxy              0.046600       0.013324
                          3       1    1dxz              0.046600       0.013324
                          3       1    1dy2              0.046600       0.007693
                          3       1    1dyz              0.046600       0.013324
                          3       1    1dz2              0.046600       0.007693

                          4       1    1px               1.487000       0.000000
                                                         0.507100       0.609968
                                                         0.181200       0.000000
                                                         0.064630       0.000000
                          4       1    1py               1.487000       0.000000
                                                         0.507100       0.609968
                                                         0.181200       0.000000
                                                         0.064630       0.000000
                          4       1    1pz               1.487000       0.000000
                                                         0.507100       0.609968
                                                         0.181200       0.000000
                                                         0.064630       0.000000

                          4       2    2px               1.487000       0.309695
                                                         0.507100       0.202398
                                                         0.181200       0.079550
                                                         0.064630       0.011983
                          4       2    2py               1.487000       0.309695
                                                         0.507100       0.202398
                                                         0.181200       0.079550
                                                         0.064630       0.011983
                          4       2    2pz               1.487000       0.309695
                                                         0.507100       0.202398
                                                         0.181200       0.079550
                                                         0.064630       0.011983

                          4       3    3px               1.487000       0.000000
                                                         0.507100       0.000000
                                                         0.181200       0.168515
                                                         0.064630       0.000000
                          4       3    3py               1.487000       0.000000
                                                         0.507100       0.000000
                                                         0.181200       0.168515
                                                         0.064630       0.000000
                          4       3    3pz               1.487000       0.000000
                                                         0.507100       0.000000
                                                         0.181200       0.168515
                                                         0.064630       0.000000

                          4       4    4px               1.487000       0.000000
                                                         0.507100       0.000000
                                                         0.181200       0.000000
                                                         0.064630       0.046450
                          4       4    4py               1.487000       0.000000
                                                         0.507100       0.000000
                                                         0.181200       0.000000
                                                         0.064630       0.046450
                          4       4    4pz               1.487000       0.000000
                                                         0.507100       0.000000
                                                         0.181200       0.000000
                                                         0.064630       0.046450

                          5       1    1s                1.727000       0.241946
                                                         0.470400       0.006237
                                                         0.189600      -0.000810
                                                         0.073940       0.000114

                          5       2    2s                1.727000       0.000000
                                                         0.470400       0.404819
                                                         0.189600       0.000000
                                                         0.073940       0.000000

                          5       3    3s                1.727000       0.000000
                                                         0.470400       0.000000
                                                         0.189600       0.204781
                                                         0.073940       0.000000

                          5       4    4s                1.727000      -0.132141
                                                         0.470400       0.105989
                                                         0.189600       0.120137
                                                         0.073940       0.029357

                          5       5    5s                1.727000       0.000000
                                                         0.470400       0.000000
                                                         0.189600       0.000000
                                                         0.073940       0.101058

                          6       1    1fx3              0.113000       0.010899
                          6       1    1fx2y             0.113000       0.024371
                          6       1    1fx2z             0.113000       0.024371
                          6       1    1fxy2             0.113000       0.024371
                          6       1    1fxyz             0.113000       0.042211
                          6       1    1fxz2             0.113000       0.024371
                          6       1    1fy3              0.113000       0.010899
                          6       1    1fy2z             0.113000       0.024371
                          6       1    1fyz2             0.113000       0.024371
                          6       1    1fz3              0.113000       0.010899

                          7       1    1dx2              1.110000       1.975717
                                                         0.402000       0.000000
                                                         0.145000       0.000000
                          7       1    1dxy              1.110000       3.422042
                                                         0.402000       0.000000
                                                         0.145000       0.000000
                          7       1    1dxz              1.110000       3.422042
                                                         0.402000       0.000000
                                                         0.145000       0.000000
                          7       1    1dy2              1.110000       1.975717
                                                         0.402000       0.000000
                                                         0.145000       0.000000
                          7       1    1dyz              1.110000       3.422042
                                                         0.402000       0.000000
                                                         0.145000       0.000000
                          7       1    1dz2              1.110000       1.975717
                                                         0.402000       0.000000
                                                         0.145000       0.000000

                          7       2    2dx2              1.110000       0.000000
                                                         0.402000       0.334045
                                                         0.145000       0.000000
                          7       2    2dxy              1.110000       0.000000
                                                         0.402000       0.578583
                                                         0.145000       0.000000
                          7       2    2dxz              1.110000       0.000000
                                                         0.402000       0.578583
                                                         0.145000       0.000000
                          7       2    2dy2              1.110000       0.000000
                                                         0.402000       0.334045
                                                         0.145000       0.000000
                          7       2    2dyz              1.110000       0.000000
                                                         0.402000       0.578583
                                                         0.145000       0.000000
                          7       2    2dz2              1.110000       0.000000
                                                         0.402000       0.334045
                                                         0.145000       0.000000

                          7       3    3dx2              1.110000       0.000000
                                                         0.402000       0.000000
                                                         0.145000       0.056079
                          7       3    3dxy              1.110000       0.000000
                                                         0.402000       0.000000
                                                         0.145000       0.097132
                          7       3    3dxz              1.110000       0.000000
                                                         0.402000       0.000000
                                                         0.145000       0.097132
                          7       3    3dy2              1.110000       0.000000
                                                         0.402000       0.000000
                                                         0.145000       0.056079
                          7       3    3dyz              1.110000       0.000000
                                                         0.402000       0.000000
                                                         0.145000       0.097132
                          7       3    3dz2              1.110000       0.000000
                                                         0.402000       0.000000
                                                         0.145000       0.056079

                          8       1    1gx4              0.273000       0.031324
                          8       1    1gx3y             0.273000       0.082877
                          8       1    1gx3z             0.273000       0.082877
                          8       1    1gx2y2            0.273000       0.106993
                          8       1    1gx2yz            0.273000       0.185318
                          8       1    1gx2z2            0.273000       0.106993
                          8       1    1gxy3             0.273000       0.082877
                          8       1    1gxy2z            0.273000       0.185318
                          8       1    1gxyz2            0.273000       0.185318
                          8       1    1gxz3             0.273000       0.082877
                          8       1    1gy4              0.273000       0.031324
                          8       1    1gy3z             0.273000       0.082877
                          8       1    1gy2z2            0.273000       0.106993
                          8       1    1gyz3             0.273000       0.082877
                          8       1    1gz4              0.273000       0.031324

                          9       1    1fx3              0.882000       1.109836
                                                         0.311000       0.000000
                          9       1    1fx2y             0.882000       2.481669
                                                         0.311000       0.000000
                          9       1    1fx2z             0.882000       2.481669
                                                         0.311000       0.000000
                          9       1    1fxy2             0.882000       2.481669
                                                         0.311000       0.000000
                          9       1    1fxyz             0.882000       4.298376
                                                         0.311000       0.000000
                          9       1    1fxz2             0.882000       2.481669
                                                         0.311000       0.000000
                          9       1    1fy3              0.882000       1.109836
                                                         0.311000       0.000000
                          9       1    1fy2z             0.882000       2.481669
                                                         0.311000       0.000000
                          9       1    1fyz2             0.882000       2.481669
                                                         0.311000       0.000000
                          9       1    1fz3              0.882000       1.109836
                                                         0.311000       0.000000

                          9       2    2fx3              0.882000       0.000000
                                                         0.311000       0.106332
                          9       2    2fx2y             0.882000       0.000000
                                                         0.311000       0.237766
                          9       2    2fx2z             0.882000       0.000000
                                                         0.311000       0.237766
                          9       2    2fxy2             0.882000       0.000000
                                                         0.311000       0.237766
                          9       2    2fxyz             0.882000       0.000000
                                                         0.311000       0.411823
                          9       2    2fxz2             0.882000       0.000000
                                                         0.311000       0.237766
                          9       2    2fy3              0.882000       0.000000
                                                         0.311000       0.106332
                          9       2    2fy2z             0.882000       0.000000
                                                         0.311000       0.237766
                          9       2    2fyz2             0.882000       0.000000
                                                         0.311000       0.237766
                          9       2    2fz3              0.882000       0.000000
                                                         0.311000       0.106332

                         10       1    1gx4              0.673000       0.374522
                         10       1    1gx3y             0.673000       0.990891
                         10       1    1gx3z             0.673000       0.990891
                         10       1    1gx2y2            0.673000       1.279235
                         10       1    1gx2yz            0.673000       2.215700
                         10       1    1gx2z2            0.673000       1.279235
                         10       1    1gxy3             0.673000       0.990891
                         10       1    1gxy2z            0.673000       2.215700
                         10       1    1gxyz2            0.673000       2.215700
                         10       1    1gxz3             0.673000       0.990891
                         10       1    1gy4              0.673000       0.374522
                         10       1    1gy3z             0.673000       0.990891
                         10       1    1gy2z2            0.673000       1.279235
                         10       1    1gyz3             0.673000       0.990891
                         10       1    1gz4              0.673000       0.374522

     AE Potential information for                                            ALL

       Description:                                       All-electron potential
                                          Krack, Parrinello, PCCP 2, 2105 (2000)

       Gaussian exponent of the core charge distribution:               2.655410
       Electronic configuration (s p d ...):                           4   1   0

  2. Atomic kind: N                                     Number of atoms:       1

     Orbital Basis Set                                               aug-cc-pVQZ

       Number of orbital shell sets:                                          10
       Number of orbital shells:                                              20
       Number of primitive Cartesian functions:                               29
       Number of Cartesian basis functions:                                  105
       Number of spherical basis functions:                                   80
       Norm type:                                                              2

       Normalised Cartesian orbitals:

                        Set   Shell   Orbital            Exponent    Coefficient

                          1       1    1px               0.044020       0.028741
                          1       1    1py               0.044020       0.028741
                          1       1    1pz               0.044020       0.028741

                          2       1    1s                0.054640       0.080546

                          3       1    1dx2              0.111000       0.035134
                          3       1    1dxy              0.111000       0.060853
                          3       1    1dxz              0.111000       0.060853
                          3       1    1dy2              0.111000       0.035134
                          3       1    1dyz              0.111000       0.060853
                          3       1    1dz2              0.111000       0.035134

                          4       1    1px              49.330000       0.000000
                                                        11.370000       0.000000
                                                         3.435000       0.000000
                                                         1.182000       1.756758
                                                         0.417300       0.000000
                                                         0.142800       0.000000
                          4       1    1py              49.330000       0.000000
                                                        11.370000       0.000000
                                                         3.435000       0.000000
                                                         1.182000       1.756758
                                                         0.417300       0.000000
                                                         0.142800       0.000000
                          4       1    1pz              49.330000       0.000000
                                                        11.370000       0.000000
                                                         3.435000       0.000000
                                                         1.182000       1.756758
                                                         0.417300       0.000000
                                                         0.142800       0.000000

                          4       2    2px              49.330000       1.031073
                                                        11.370000       1.129768
                                                         3.435000       0.993381
                                                         1.182000       0.612971
                                                         0.417300       0.219425
                                                         0.142800       0.030646
                          4       2    2py              49.330000       1.031073
                                                        11.370000       1.129768
                                                         3.435000       0.993381
                                                         1.182000       0.612971
                                                         0.417300       0.219425
                                                         0.142800       0.030646
                          4       2    2pz              49.330000       1.031073
                                                        11.370000       1.129768
                                                         3.435000       0.993381
                                                         1.182000       0.612971
                                                         0.417300       0.219425
                                                         0.142800       0.030646

                          4       3    3px              49.330000       0.000000
                                                        11.370000       0.000000
                                                         3.435000       0.000000
                                                         1.182000       0.000000
                                                         0.417300       0.478080
                                                         0.142800       0.000000
                          4       3    3py              49.330000       0.000000
                                                        11.370000       0.000000
                                                         3.435000       0.000000
                                                         1.182000       0.000000
                                                         0.417300       0.478080
                                                         0.142800       0.000000
                          4       3    3pz              49.330000       0.000000
                                                        11.370000       0.000000
                                                         3.435000       0.000000
                                                         1.182000       0.000000
                                                         0.417300       0.478080
                                                         0.142800       0.000000

                          4       4    4px              49.330000       0.000000
                                                        11.370000       0.000000
                                                         3.435000       0.000000
                                                         1.182000       0.000000
                                                         0.417300       0.000000
                                                         0.142800       0.125127
                          4       4    4py              49.330000       0.000000
                                                        11.370000       0.000000
                                                         3.435000       0.000000
                                                         1.182000       0.000000
                                                         0.417300       0.000000
                                                         0.142800       0.125127
                          4       4    4pz              49.330000       0.000000
                                                        11.370000       0.000000
                                                         3.435000       0.000000
                                                         1.182000       0.000000
                                                         0.417300       0.000000
                                                         0.142800       0.125127

                          5       1    1s            45840.000000       0.205414
                                                      6868.000000       0.385524
                                                      1563.000000       0.664193
                                                       442.400000       1.067821
                                                       144.300000       1.576994
                                                        52.180000       2.031073
                                                        20.340000       2.079662
                                                         8.381000       1.396111
                                                         3.529000       0.399383
                                                         1.054000       0.012576
                                                         0.411800      -0.001006
                                                         0.155200       0.000168

                          5       2    2s            45840.000000       0.000000
                                                      6868.000000       0.000000
                                                      1563.000000       0.000000
                                                       442.400000       0.000000
                                                       144.300000       0.000000
                                                        52.180000       0.000000
                                                        20.340000       0.000000
                                                         8.381000       0.000000
                                                         3.529000       0.000000
                                                         1.054000       0.741379
                                                         0.411800       0.000000
                                                         0.155200       0.000000

                          5       3    3s            45840.000000       0.000000
                                                      6868.000000       0.000000
                                                      1563.000000       0.000000
                                                       442.400000       0.000000
                                                       144.300000       0.000000
                                                        52.180000       0.000000
                                                        20.340000       0.000000
                                                         8.381000       0.000000
                                                         3.529000       0.000000
                                                         1.054000       0.000000
                                                         0.411800       0.366374
                                                         0.155200       0.000000

                          5       4    4s            45840.000000      -0.044655
                                                      6868.000000      -0.085493
                                                      1563.000000      -0.145985
                                                       442.400000      -0.239112
                                                       144.300000      -0.355066
                                                        52.180000      -0.489660
                                                        20.340000      -0.546615
                                                         8.381000      -0.515083
                                                         3.529000      -0.213527
                                                         1.054000       0.207526
                                                         0.411800       0.214505
                                                         0.155200       0.050054

                          5       5    5s            45840.000000       0.000000
                                                      6868.000000       0.000000
                                                      1563.000000       0.000000
                                                       442.400000       0.000000
                                                       144.300000       0.000000
                                                        52.180000       0.000000
                                                        20.340000       0.000000
                                                         8.381000       0.000000
                                                         3.529000       0.000000
[...]
 *    |             please set the keyword IGNORE_CONVERGENCE_FAILURE.         *
 *  O/|                                                                        *
 * /| |                                                                        *
 * / \                                                            qs_scf.F:611 *
 *******************************************************************************


 ===== Routine Calling Stack ===== 

            3 scf_env_do_scf
            2 qs_energies
            1 CP2K

 *******************************************************************************
 *   ___                                                                       *
 *  /   \                                                                      *
 * [ABORT]                                                                     *
 *  \___/     SCF run NOT converged. To continue the calculation regardless,   *
 *    |             please set the keyword IGNORE_CONVERGENCE_FAILURE.         *
 *  O/|                                                                        *
 * /| |                                                                        *
 * / \                                                            qs_scf.F:611 *
 *******************************************************************************


 ===== Routine Calling Stack ===== 

            3 scf_env_do_scf
            2 qs_energies
            1 CP2K

 *******************************************************************************
 *   ___                                                                       *
 *  /   \                                                                      *
 * [ABORT]                                                                     *
 *  \___/     SCF run NOT converged. To continue the calculation regardless,   *
 *    |             please set the keyword IGNORE_CONVERGENCE_FAILURE.         *
 *  O/|                                                                        *
 * /| |                                                                        *
 * / \                                                            qs_scf.F:611 *
 *******************************************************************************


 ===== Routine Calling Stack ===== 

            3 scf_env_do_scf
            2 qs_energies
            1 CP2K

 *******************************************************************************
 *   ___                                                                       *
 *  /   \                                                                      *
 * [ABORT]                                                                     *
 *  \___/     SCF run NOT converged. To continue the calculation regardless,   *
 *    |             please set the keyword IGNORE_CONVERGENCE_FAILURE.         *
 *  O/|                                                                        *
 * /| |                                                                        *
 * / \                                                            qs_scf.F:611 *
 *******************************************************************************


 ===== Routine Calling Stack ===== 

            3 scf_env_do_scf
            2 qs_energies
            1 CP2K

 *******************************************************************************
 *   ___                                                                       *
 *  /   \                                                                      *
 * [ABORT]                                                                     *
 *  \___/     SCF run NOT converged. To continue the calculation regardless,   *
 *    |             please set the keyword IGNORE_CONVERGENCE_FAILURE.         *
 *  O/|                                                                        *
 * /| |                                                                        *
 * / \                                                            qs_scf.F:611 *
 *******************************************************************************


 ===== Routine Calling Stack ===== 

            3 scf_env_do_scf
            2 qs_energies
            1 CP2K

 *******************************************************************************
 *   ___                                                                       *
 *  /   \                                                                      *
 * [ABORT]                                                                     *
 *  \___/     SCF run NOT converged. To continue the calculation regardless,   *
 *    |             please set the keyword IGNORE_CONVERGENCE_FAILURE.         *
 *  O/|                                                                        *
 * /| |                                                                        *
 * / \                                                            qs_scf.F:611 *
 *******************************************************************************


 ===== Routine Calling Stack ===== 

            3 scf_env_do_scf
            2 qs_energies
            1 CP2K

 *******************************************************************************
 *   ___                                                                       *
 *  /   \                                                                      *
 * [ABORT]                                                                     *
 *  \___/     SCF run NOT converged. To continue the calculation regardless,   *
 *    |             please set the keyword IGNORE_CONVERGENCE_FAILURE.         *
 *  O/|                                                                        *
 * /| |                                                                        *
 * / \                                                            qs_scf.F:611 *
 *******************************************************************************


 ===== Routine Calling Stack ===== 

            3 scf_env_do_scf
            2 qs_energies
            1 CP2K

 *******************************************************************************
 *   ___                                                                       *
 *  /   \                                                                      *
 * [ABORT]                                                                     *
 *  \___/     SCF run NOT converged. To continue the calculation regardless,   *
 *    |             please set the keyword IGNORE_CONVERGENCE_FAILURE.         *
 *  O/|                                                                        *
 * /| |                                                                        *
 * / \                                                            qs_scf.F:611 *
 *******************************************************************************


 ===== Routine Calling Stack ===== 

            3 scf_env_do_scf
            2 qs_energies
            1 CP2K

 *******************************************************************************
 *   ___                                                                       *
 *  /   \                                                                      *
 * [ABORT]                                                                     *
 *  \___/     SCF run NOT converged. To continue the calculation regardless,   *
 *    |             please set the keyword IGNORE_CONVERGENCE_FAILURE.         *
 *  O/|                                                                        *
 * /| |                                                                        *
 * / \                                                            qs_scf.F:611 *
 *******************************************************************************


 ===== Routine Calling Stack ===== 

            3 scf_env_do_scf
            2 qs_energies
            1 CP2K

 *******************************************************************************
 *   ___                                                                       *
 *  /   \                                                                      *
 * [ABORT]                                                                     *
 *  \___/     SCF run NOT converged. To continue the calculation regardless,   *
 *    |             please set the keyword IGNORE_CONVERGENCE_FAILURE.         *
 *  O/|                                                                        *
 * /| |                                                                        *
 * / \                                                            qs_scf.F:611 *
 *******************************************************************************


 ===== Routine Calling Stack ===== 

            3 scf_env_do_scf
            2 qs_energies
            1 CP2K

 *******************************************************************************
 *   ___                                                                       *
 *  /   \                                                                      *
 * [ABORT]                                                                     *
 *  \___/     SCF run NOT converged. To continue the calculation regardless,   *
 *    |             please set the keyword IGNORE_CONVERGENCE_FAILURE.         *
 *  O/|                                                                        *
 * /| |                                                                        *
 * / \                                                            qs_scf.F:611 *
 *******************************************************************************


 ===== Routine Calling Stack ===== 

            3 scf_env_do_scf
            2 qs_energies
            1 CP2K

 *******************************************************************************
 *   ___                                                                       *
 *  /   \                                                                      *
 * [ABORT]                                                                     *
 *  \___/     SCF run NOT converged. To continue the calculation regardless,   *
 *    |             please set the keyword IGNORE_CONVERGENCE_FAILURE.         *
 *  O/|                                                                        *
 * /| |                                                                        *
 * / \                                                            qs_scf.F:611 *
 *******************************************************************************


 ===== Routine Calling Stack ===== 

            3 scf_env_do_scf
            2 qs_energies
            1 CP2K

 *******************************************************************************
 *   ___                                                                       *
 *  /   \                                                                      *
 * [ABORT]                                                                     *
 *  \___/     SCF run NOT converged. To continue the calculation regardless,   *
 *    |             please set the keyword IGNORE_CONVERGENCE_FAILURE.         *
 *  O/|                                                                        *
 * /| |                                                                        *
 * / \                                                            qs_scf.F:611 *
 *******************************************************************************


 ===== Routine Calling Stack ===== 

            3 scf_env_do_scf
            2 qs_energies
            1 CP2K

 *******************************************************************************
 *   ___                                                                       *
 *  /   \                                                                      *
 * [ABORT]                                                                     *
 *  \___/     SCF run NOT converged. To continue the calculation regardless,   *
 *    |             please set the keyword IGNORE_CONVERGENCE_FAILURE.         *
 *  O/|                                                                        *
 * /| |                                                                        *
 * / \                                                            qs_scf.F:611 *
 *******************************************************************************


 ===== Routine Calling Stack ===== 

            3 scf_env_do_scf
            2 qs_energies
            1 CP2K

 *******************************************************************************
 *   ___                                                                       *
 *  /   \                                                                      *
 * [ABORT]                                                                     *
 *  \___/     SCF run NOT converged. To continue the calculation regardless,   *
 *    |             please set the keyword IGNORE_CONVERGENCE_FAILURE.         *
 *  O/|                                                                        *
 * /| |                                                                        *
 * / \                                                            qs_scf.F:611 *
 *******************************************************************************


 ===== Routine Calling Stack ===== 

            3 scf_env_do_scf
            2 qs_energies
            1 CP2K

 *******************************************************************************
 *   ___                                                                       *
 *  /   \                                                                      *
 * [ABORT]                                                                     *
 *  \___/     SCF run NOT converged. To continue the calculation regardless,   *
 *    |             please set the keyword IGNORE_CONVERGENCE_FAILURE.         *
 *  O/|                                                                        *
 * /| |                                                                        *
 * / \                                                            qs_scf.F:611 *
 *******************************************************************************


 ===== Routine Calling Stack ===== 

            3 scf_env_do_scf
            2 qs_energies
            1 CP2K

 *******************************************************************************
 *   ___                                                                       *
 *  /   \                                                                      *
 * [ABORT]                                                                     *
 *  \___/     SCF run NOT converged. To continue the calculation regardless,   *
 *    |             please set the keyword IGNORE_CONVERGENCE_FAILURE.         *
 *  O/|                                                                        *
 * /| |                                                                        *
 * / \                                                            qs_scf.F:611 *
 *******************************************************************************


 ===== Routine Calling Stack ===== 

            3 scf_env_do_scf
            2 qs_energies
            1 CP2K

 *******************************************************************************
 *   ___                                                                       *
 *  /   \                                                                      *
 * [ABORT]                                                                     *
 *  \___/     SCF run NOT converged. To continue the calculation regardless,   *
 *    |             please set the keyword IGNORE_CONVERGENCE_FAILURE.         *
 *  O/|                                                                        *
 * /| |                                                                        *
 * / \                                                            qs_scf.F:611 *
 *******************************************************************************


 ===== Routine Calling Stack ===== 

            3 scf_env_do_scf
            2 qs_energies
            1 CP2K

 *******************************************************************************
 *   ___                                                                       *
 *  /   \                                                                      *
 * [ABORT]                                                                     *
 *  \___/     SCF run NOT converged. To continue the calculation regardless,   *
 *    |             please set the keyword IGNORE_CONVERGENCE_FAILURE.         *
 *  O/|                                                                        *
 * /| |                                                                        *
 * / \                                                            qs_scf.F:611 *
 *******************************************************************************


 ===== Routine Calling Stack ===== 

            3 scf_env_do_scf
            2 qs_energies
            1 CP2K

 *******************************************************************************
 *   ___                                                                       *
 *  /   \                                                                      *
 * [ABORT]                                                                     *
 *  \___/     SCF run NOT converged. To continue the calculation regardless,   *
 *    |             please set the keyword IGNORE_CONVERGENCE_FAILURE.         *
 *  O/|                                                                        *
 * /| |                                                                        *
 * / \                                                            qs_scf.F:611 *
 *******************************************************************************


 ===== Routine Calling Stack ===== 

            3 scf_env_do_scf
            2 qs_energies
            1 CP2K

 *******************************************************************************
 *   ___                                                                       *
 *  /   \                                                                      *
 * [ABORT]                                                                     *
 *  \___/     SCF run NOT converged. To continue the calculation regardless,   *
 *    |             please set the keyword IGNORE_CONVERGENCE_FAILURE.         *
 *  O/|                                                                        *
 * /| |                                                                        *
 * / \                                                            qs_scf.F:611 *
 *******************************************************************************


 ===== Routine Calling Stack ===== 

            3 scf_env_do_scf
            2 qs_energies
            1 CP2K

 *******************************************************************************
 *   ___                                                                       *
 *  /   \                                                                      *
 * [ABORT]                                                                     *
 *  \___/     SCF run NOT converged. To continue the calculation regardless,   *
 *    |             please set the keyword IGNORE_CONVERGENCE_FAILURE.         *
 *  O/|                                                                        *
 * /| |                                                                        *
 * / \                                                            qs_scf.F:611 *
 *******************************************************************************


 ===== Routine Calling Stack ===== 

            3 scf_env_do_scf
            2 qs_energies
            1 CP2K
