 DBCSR| CPU Multiplication driver                                           BLAS (U)
 DBCSR| Multrec recursion limit                                              512 (U)
 DBCSR| Multiplication stack size                                           1000 (D)
 DBCSR| Maximum elements for images                                    UNLIMITED (U)
 DBCSR| Multiplicative factor virtual images                                   1 (U)
 DBCSR| Use multiplication densification                                       T (D)
 DBCSR| Multiplication size stacks                                             3 (U)
 DBCSR| Use memory pool for CPU allocation                                     F (U)
 DBCSR| Number of 3D layers                                               SINGLE (U)
 DBCSR| Use MPI memory allocation                                              F (U)
 DBCSR| Use RMA algorithm                                                      F (U)
 DBCSR| Use Communication thread                                               T (U)
 DBCSR| Communication thread load                                             75 (D)
 DBCSR| MPI: My process id                                                     0
 DBCSR| MPI: Number of processes                                              24
 DBCSR| OMP: Current number of threads                                         4
 DBCSR| OMP: Max number of threads                                             4
 DBCSR| Split modifier for TAS multiplication algorithm                  1.0E+00 (U)


  **** **** ******  **  PROGRAM STARTED AT               2025-03-16 12:16:05.831
 ***** ** ***  *** **   PROGRAM STARTED ON                          i04r06c05s07
 **    ****   ******    PROGRAM STARTED BY                               di38fab
 ***** **    ** ** **   PROGRAM PROCESS ID                                775678
  **** **  *******  **  PROGRAM STARTED IN /hppfs/scratch/04/di38fab/05_MOL/W4-1
                                           1+ALK/li_h/TZVP/GW+BSE/1e-3

 CP2K| version string:                 CP2K version 2025.1 (Development Version)
 CP2K| source code revision number:                                  git:d2e611a
 CP2K| cp2kflags: omp libint fftw3 libxc parallel scalapack max_contr=4         
 CP2K| is freely available from                            https://www.cp2k.org/
 CP2K| Program compiled at                       Thu 06 Mar 2025 05:09:20 PM CET
 CP2K| Program compiled on                                               login02
 CP2K| Program compiled for                                        Supermuc-foss
 CP2K| Data directory path                  /hppfs/work/pn36zo/di38fab/cp2k/data
 CP2K| Input file name                                                    GW.inp

 GLOBAL| Force Environment number                                              1
 GLOBAL| Basis set file name            /hppfs/scratch/04/di38fab/04_TMD/BASIS_A
 GLOBAL| Potential file name            /hppfs/work/pn36zo/di38fab/cp2k/data/ALL
 GLOBAL| MM Potential file name                                     MM_POTENTIAL
 GLOBAL| Coordinate file name                                      __STD_INPUT__
 GLOBAL| Method name                                                        CP2K
 GLOBAL| Project name                                                       MoS2
 GLOBAL| Run type                                                         ENERGY
 GLOBAL| FFT library                                                       FFTW3
 GLOBAL| Diagonalization library                                       ScaLAPACK
 GLOBAL| DGEMM library                                                      BLAS
 GLOBAL| Orthonormality check for eigenvectors                          DISABLED
 GLOBAL| Matrix multiplication library                                 ScaLAPACK
 GLOBAL| All-to-all communication in single precision                          F
 GLOBAL| FFTs using library dependent lengths                                  F
 GLOBAL| Grid backend                                                       AUTO
 GLOBAL| Global print level                                               MEDIUM
 GLOBAL| MPI I/O enabled                                                       T
 GLOBAL| Total number of message passing processes                            24
 GLOBAL| Number of threads for this process                                    4
 GLOBAL| This output is from process                                           0
 GLOBAL| OpenMP stack size per thread (OMP_STACKSIZE)                    default
 GLOBAL| CPU model name             Intel(R) Xeon(R) Platinum 8174 CPU @ 3.10GHz

 MEMORY| system memory details [Kb]
 MEMORY|                        rank 0           min           max       average
 MEMORY| MemTotal             98436664      98436664      98436664      98436664
 MEMORY| MemFree              84255004      83923188      84255004      84089096
 MEMORY| Buffers                     0             0             0             0
 MEMORY| Cached                2393916       2393916       2402624       2398270
 MEMORY| Slab                  1235488       1235488       1242944       1239216
 MEMORY| SReclaimable           278384        274628        278384        276506
 MEMORY| MemLikelyFree        86927304      86600440      86927304      86763872


 *** Fundamental physical constants (SI units) ***

 *** Literature: B. J. Mohr and B. N. Taylor,
 ***             CODATA recommended values of the fundamental physical
 ***             constants: 2006, Web Version 5.1
 ***             http://physics.nist.gov/constants

 Speed of light in vacuum [m/s]                             2.99792458000000E+08
 Magnetic constant or permeability of vacuum [N/A**2]       1.25663706143592E-06
 Electric constant or permittivity of vacuum [F/m]          8.85418781762039E-12
 Planck constant (h) [J*s]                                  6.62606896000000E-34
 Planck constant (h-bar) [J*s]                              1.05457162825177E-34
 Elementary charge [C]                                      1.60217648700000E-19
 Electron mass [kg]                                         9.10938215000000E-31
 Electron g factor [ ]                                     -2.00231930436220E+00
 Proton mass [kg]                                           1.67262163700000E-27
 Fine-structure constant                                    7.29735253760000E-03
 Rydberg constant [1/m]                                     1.09737315685270E+07
 Avogadro constant [1/mol]                                  6.02214179000000E+23
 Boltzmann constant [J/K]                                   1.38065040000000E-23
 Atomic mass unit [kg]                                      1.66053878200000E-27
 Bohr radius [m]                                            5.29177208590000E-11

 *** Conversion factors ***

 [u] -> [a.u.]                                              1.82288848426455E+03
 [Angstrom] -> [Bohr] = [a.u.]                              1.88972613288564E+00
 [a.u.] = [Bohr] -> [Angstrom]                              5.29177208590000E-01
 [a.u.] -> [s]                                              2.41888432650478E-17
 [a.u.] -> [fs]                                             2.41888432650478E-02
 [a.u.] -> [J]                                              4.35974393937059E-18
 [a.u.] -> [N]                                              8.23872205491840E-08
 [a.u.] -> [K]                                              3.15774647902944E+05
 [a.u.] -> [kJ/mol]                                         2.62549961709828E+03
 [a.u.] -> [kcal/mol]                                       6.27509468713739E+02
 [a.u.] -> [Pa]                                             2.94210107994716E+13
 [a.u.] -> [bar]                                            2.94210107994716E+08
 [a.u.] -> [atm]                                            2.90362800883016E+08
 [a.u.] -> [eV]                                             2.72113838565563E+01
 [a.u.] -> [Hz]                                             6.57968392072181E+15
 [a.u.] -> [1/cm] (wave numbers)                            2.19474631370540E+05
 [a.u./Bohr**2] -> [1/cm]                                   5.14048714338585E+03
 

 CELL_TOP| Volume [angstrom^3]:                                     27000.000000
 CELL_TOP| Vector a [angstrom    30.000     0.000     0.000   |a| =    30.000000
 CELL_TOP| Vector b [angstrom     0.000    30.000     0.000   |b| =    30.000000
 CELL_TOP| Vector c [angstrom     0.000     0.000    30.000   |c| =    30.000000
 CELL_TOP| Angle (b,c), alpha [degree]:                                90.000000
 CELL_TOP| Angle (a,c), beta  [degree]:                                90.000000
 CELL_TOP| Angle (a,b), gamma [degree]:                                90.000000
 CELL_TOP| Numerically orthorhombic:                                         YES
 CELL_TOP| Periodicity                                                      NONE

 GENERATE|  Preliminary Number of Bonds generated:                             0
 GENERATE|  Achieved consistency in connectivity generation.

 CELL| Volume [angstrom^3]:                                         27000.000000
 CELL| Vector a [angstrom]:      30.000     0.000     0.000   |a| =    30.000000
 CELL| Vector b [angstrom]:       0.000    30.000     0.000   |b| =    30.000000
 CELL| Vector c [angstrom]:       0.000     0.000    30.000   |c| =    30.000000
 CELL| Angle (b,c), alpha [degree]:                                    90.000000
 CELL| Angle (a,c), beta  [degree]:                                    90.000000
 CELL| Angle (a,b), gamma [degree]:                                    90.000000
 CELL| Numerically orthorhombic:                                             YES
 CELL| Periodicity                                                          NONE

 CELL_REF| Volume [angstrom^3]:                                     27000.000000
 CELL_REF| Vector a [angstrom    30.000     0.000     0.000   |a| =    30.000000
 CELL_REF| Vector b [angstrom     0.000    30.000     0.000   |b| =    30.000000
 CELL_REF| Vector c [angstrom     0.000     0.000    30.000   |c| =    30.000000
 CELL_REF| Angle (b,c), alpha [degree]:                                90.000000
 CELL_REF| Angle (a,c), beta  [degree]:                                90.000000
 CELL_REF| Angle (a,b), gamma [degree]:                                90.000000
 CELL_REF| Numerically orthorhombic:                                         YES
 CELL_REF| Periodicity                                                      NONE

 *******************************************************************************
 *******************************************************************************
 **                                                                           **
 **     #####                         ##              ##                      **
 **    ##   ##            ##          ##              ##                      **
 **   ##     ##                       ##            ######                    **
 **   ##     ##  ##   ##  ##   #####  ##  ##   ####   ##    #####    #####    **
 **   ##     ##  ##   ##  ##  ##      ## ##   ##      ##   ##   ##  ##   ##   **
 **   ##  ## ##  ##   ##  ##  ##      ####     ###    ##   ######   ######    **
 **    ##  ###   ##   ##  ##  ##      ## ##      ##   ##   ##       ##        **
 **     #######   #####   ##   #####  ##  ##  ####    ##    #####   ##        **
 **           ##                                                    ##        **
 **                                                                           **
 **                                                ... make the atoms dance   **
 **                                                                           **
 **            Copyright (C) by CP2K developers group (2000-2025)             **
 **                      J. Chem. Phys. 152, 194103 (2020)                    **
 **                                                                           **
 *******************************************************************************

 DFT| Spin restricted Kohn-Sham (RKS) calculation                            RKS
 DFT| Multiplicity                                                             1
 DFT| Number of spin states                                                    1
 DFT| Charge                                                                   0
 DFT| Self-interaction correction (SIC)                                       NO
 DFT| Cutoffs: density                                              1.000000E-10
 DFT|          gradient                                             1.000000E-10
 DFT|          tau                                                  1.000000E-10
 DFT|          cutoff_smoothing_range                               0.000000E+00
 DFT| XC density smoothing                                                  NONE
 DFT| XC derivatives                                                          PW

 FUNCTIONAL| PBE:
 FUNCTIONAL| J.P.Perdew, K.Burke, M.Ernzerhof, Phys. Rev. Letter, vol. 77, n 18,
 FUNCTIONAL|  pp. 3865-3868, (1996)sx=0.750sc=1.000{spin unpolarized}           


 QS| Method:                                                                GAPW
 QS| Density plane wave grid type                        NON-SPHERICAL FULLSPACE
 QS| Number of grid levels:                                                    4
 QS| Density cutoff [a.u.]:                                                250.0
 QS| Multi grid cutoff [a.u.]: 1) grid level                               250.0
 QS|                           2) grid level                                83.3
 QS|                           3) grid level                                27.8
 QS|                           4) grid level                                 9.3
 QS| Grid level progression factor:                                          3.0
 QS| Relative density cutoff [a.u.]:                                        50.0
 QS| Interaction thresholds: eps_pgf_orb:                                1.0E-12
 QS|                         eps_filter_matrix:                          0.0E+00
 QS|                         eps_core_charge:                            1.0E-14
 QS|                         eps_rho_gspace:                             1.0E-12
 QS|                         eps_rho_rspace:                             1.0E-12
 QS|                         eps_gvg_rspace:                             1.0E-06
 QS|                         eps_ppl:                                    1.0E-02
 QS|                         eps_ppnl:                                   1.0E-08
 QS| GAPW|      One center basis from orbital basis primitives
 QS| GAPW|                   eps_fit:                                    1.0E-04
 QS| GAPW|                   eps_iso:                                    1.0E-12
 QS| GAPW|                   eps_svd:                                    1.0E-08
 QS| GAPW|                   eps_cpc:                                    1.0E-12
 QS| GAPW|   atom-r-grid: quadrature:                                     GC_LOG
 QS| GAPW|      atom-s-grid:  max l :                                          6
 QS| GAPW|      max_l_rho0 :                                                   2


 ATOMIC KIND INFORMATION

  1. Atomic kind: li                                    Number of atoms:       1

     Orbital Basis Set                                        aug-TZVP-MOLOPT-ae

       Number of orbital shell sets:                                           2
       Number of orbital shells:                                              13
       Number of primitive Cartesian functions:                               11
       Number of Cartesian basis functions:                                   40
       Number of spherical basis functions:                                   35
       Norm type:                                                              2

       Normalised Cartesian orbitals:

                        Set   Shell   Orbital            Exponent    Coefficient

                          1       1    1s                0.024646      -0.078105
                                                         0.071007       0.213026
                                                         0.237636      -0.232469
                                                         0.680928       0.544799
                                                         1.933558      -1.060981

                          1       2    2s                0.024646       0.006228
                                                         0.071007       0.022458
                                                         0.237636       0.022101
                                                         0.680928       0.156290
                                                         1.933558       0.593777

                          1       3    3s                0.024646       0.023237
                                                         0.071007       0.033037
                                                         0.237636       0.065312
                                                         0.680928       0.047064
                                                         1.933558      -0.462606

                          1       4    4s                0.024646       0.005162
                                                         0.071007       0.074011
                                                         0.237636      -0.047989
                                                         0.680928      -0.668780
                                                         1.933558       0.448387

                          1       5    5s                0.024646       0.052262
                                                         0.071007      -0.012156
                                                         0.237636      -0.070069
                                                         0.680928       0.011411
                                                         1.933558       0.006013

                          1       6    2px               0.024646       0.000822
                                                         0.071007      -0.000886
                                                         0.237636       0.077898
                                                         0.680928      -1.218050
                                                         1.933558       5.053657
                          1       6    2py               0.024646       0.000822
                                                         0.071007      -0.000886
                                                         0.237636       0.077898
                                                         0.680928      -1.218050
                                                         1.933558       5.053657
                          1       6    2pz               0.024646       0.000822
                                                         0.071007      -0.000886
                                                         0.237636       0.077898
                                                         0.680928      -1.218050
                                                         1.933558       5.053657

                          1       7    3px               0.024646      -0.010239
                                                         0.071007      -0.021942
                                                         0.237636       0.080413
                                                         0.680928       0.093238
                                                         1.933558       0.147169
                          1       7    3py               0.024646      -0.010239
                                                         0.071007      -0.021942
                                                         0.237636       0.080413
                                                         0.680928       0.093238
                                                         1.933558       0.147169
                          1       7    3pz               0.024646      -0.010239
                                                         0.071007      -0.021942
                                                         0.237636       0.080413
                                                         0.680928       0.093238
                                                         1.933558       0.147169

                          1       8    4px               0.024646       0.000237
                                                         0.071007       0.023413
                                                         0.237636       0.129113
                                                         0.680928       0.121719
                                                         1.933558       0.036550
                          1       8    4py               0.024646       0.000237
                                                         0.071007       0.023413
                                                         0.237636       0.129113
                                                         0.680928       0.121719
                                                         1.933558       0.036550
                          1       8    4pz               0.024646       0.000237
                                                         0.071007       0.023413
                                                         0.237636       0.129113
                                                         0.680928       0.121719
                                                         1.933558       0.036550

                          1       9    5px               0.024646      -0.012357
                                                         0.071007       0.058147
                                                         0.237636       0.060042
                                                         0.680928       0.050984
                                                         1.933558       0.171511
                          1       9    5py               0.024646      -0.012357
                                                         0.071007       0.058147
                                                         0.237636       0.060042
                                                         0.680928       0.050984
                                                         1.933558       0.171511
                          1       9    5pz               0.024646      -0.012357
                                                         0.071007       0.058147
                                                         0.237636       0.060042
                                                         0.680928       0.050984
                                                         1.933558       0.171511

                          1      10    3dx2              0.024646      -0.000157
                                                         0.071007       0.006388
                                                         0.237636       0.091398
                                                         0.680928       0.100225
                                                         1.933558      -0.256537
                          1      10    3dxy              0.024646      -0.000271
                                                         0.071007       0.011064
                                                         0.237636       0.158306
                                                         0.680928       0.173596
                                                         1.933558      -0.444335
                          1      10    3dxz              0.024646      -0.000271
                                                         0.071007       0.011064
                                                         0.237636       0.158306
                                                         0.680928       0.173596
                                                         1.933558      -0.444335
                          1      10    3dy2              0.024646      -0.000157
                                                         0.071007       0.006388
                                                         0.237636       0.091398
                                                         0.680928       0.100225
                                                         1.933558      -0.256537
                          1      10    3dyz              0.024646      -0.000271
                                                         0.071007       0.011064
                                                         0.237636       0.158306
                                                         0.680928       0.173596
                                                         1.933558      -0.444335
                          1      10    3dz2              0.024646      -0.000157
                                                         0.071007       0.006388
                                                         0.237636       0.091398
                                                         0.680928       0.100225
                                                         1.933558      -0.256537

                          1      11    4dx2              0.024646      -0.000002
                                                         0.071007       0.016088
                                                         0.237636       0.000035
                                                         0.680928      -0.002278
                                                         1.933558      -0.014809
                          1      11    4dxy              0.024646      -0.000003
                                                         0.071007       0.027866
                                                         0.237636       0.000061
                                                         0.680928      -0.003946
                                                         1.933558      -0.025650
                          1      11    4dxz              0.024646      -0.000003
                                                         0.071007       0.027866
                                                         0.237636       0.000061
                                                         0.680928      -0.003946
                                                         1.933558      -0.025650
                          1      11    4dy2              0.024646      -0.000002
                                                         0.071007       0.016088
                                                         0.237636       0.000035
                                                         0.680928      -0.002278
                                                         1.933558      -0.014809
                          1      11    4dyz              0.024646      -0.000003
                                                         0.071007       0.027866
                                                         0.237636       0.000061
                                                         0.680928      -0.003946
                                                         1.933558      -0.025650
                          1      11    4dz2              0.024646      -0.000002
                                                         0.071007       0.016088
                                                         0.237636       0.000035
                                                         0.680928      -0.002278
                                                         1.933558      -0.014809

                          1      12    4fx3              0.024646      -0.000304
                                                         0.071007       0.004674
                                                         0.237636      -0.004905
                                                         0.680928      -0.023032
                                                         1.933558       0.088408
                          1      12    4fx2y             0.024646      -0.000679
                                                         0.071007       0.010451
                                                         0.237636      -0.010968
                                                         0.680928      -0.051501
                                                         1.933558       0.197686
                          1      12    4fx2z             0.024646      -0.000679
                                                         0.071007       0.010451
                                                         0.237636      -0.010968
                                                         0.680928      -0.051501
                                                         1.933558       0.197686
                          1      12    4fxy2             0.024646      -0.000679
                                                         0.071007       0.010451
                                                         0.237636      -0.010968
                                                         0.680928      -0.051501
                                                         1.933558       0.197686
                          1      12    4fxyz             0.024646      -0.001176
                                                         0.071007       0.018102
                                                         0.237636      -0.018996
                                                         0.680928      -0.089202
                                                         1.933558       0.342401
                          1      12    4fxz2             0.024646      -0.000679
                                                         0.071007       0.010451
                                                         0.237636      -0.010968
                                                         0.680928      -0.051501
                                                         1.933558       0.197686
                          1      12    4fy3              0.024646      -0.000304
                                                         0.071007       0.004674
                                                         0.237636      -0.004905
                                                         0.680928      -0.023032
                                                         1.933558       0.088408
                          1      12    4fy2z             0.024646      -0.000679
                                                         0.071007       0.010451
                                                         0.237636      -0.010968
                                                         0.680928      -0.051501
                                                         1.933558       0.197686
                          1      12    4fyz2             0.024646      -0.000679
                                                         0.071007       0.010451
                                                         0.237636      -0.010968
                                                         0.680928      -0.051501
                                                         1.933558       0.197686
                          1      12    4fz3              0.024646      -0.000304
                                                         0.071007       0.004674
                                                         0.237636      -0.004905
                                                         0.680928      -0.023032
                                                         1.933558       0.088408

                          2       1    1s             6269.059024       0.195526
                                                       940.419254       0.355467
                                                       214.089215       0.613400
                                                        60.725519       1.001660
                                                        18.086742       1.629632
                                                         5.657040       1.936268

     RI Auxiliary Basis Set             RI_aug-TZVP-MOLOPT-ae_N_RI_015_s_p_d_f_g

       Number of orbital shell sets:                                           7
       Number of orbital shells:                                               7
       Number of primitive Cartesian functions:                                7
       Number of Cartesian basis functions:                                   16
       Number of spherical basis functions:                                   15
       Norm type:                                                              2

       Normalised Cartesian orbitals:

                        Set   Shell   Orbital            Exponent    Coefficient

                          1       1    1s                0.423592       0.374215

                          2       1    7dx2              0.914374       1.407265
                          2       1    7dxy              0.914374       2.437455
                          2       1    7dxz              0.914374       2.437455
                          2       1    7dy2              0.914374       1.407265
                          2       1    7dyz              0.914374       2.437455
                          2       1    7dz2              0.914374       1.407265

                          3       1    5px               1.095653       1.597833
                          3       1    5py               1.095653       1.597833
                          3       1    5pz               1.095653       1.597833

                          4       1    2s                1.492684       0.962467

                          5       1    6px               4.602940       9.610240
                          5       1    6py               4.602940       9.610240
                          5       1    6pz               4.602940       9.610240

                          6       1    3s                5.260022       2.475431

                          7       1    4s               18.535644       6.366721

       Atomic covalent radius [Angstrom]:                                  1.230

       Atomic van der Waals radius [Angstrom]:                             1.820

     The atoms of this atomic kind are PAW atoms (GAPW):
       Hard Gaussian function radius:                                      1.512
       Rho0 radius:                                                        1.512
       Maximum GTO radius used for PAW projector construction:            24.566

     GAPW Soft Basis Set                                 aug-TZVP-MOLOPT-ae_soft

       Number of orbital shell sets:                                           2
       Number of orbital shells:                                              13
       Number of primitive Cartesian functions:                                5
       Number of Cartesian basis functions:                                   40
       Number of spherical basis functions:                                   35
       Norm type:                                                              2

       Normalised Cartesian orbitals:

                        Set   Shell   Orbital            Exponent    Coefficient

                          1       1    1s                0.024646      -0.078105
                                                         0.071007       0.213026
                                                         0.237636      -0.232469
                                                         0.680928       0.544799
                                                         1.933558      -1.060981

                          1       2    2s                0.024646       0.006228
                                                         0.071007       0.022458
                                                         0.237636       0.022101
                                                         0.680928       0.156290
                                                         1.933558       0.593777

                          1       3    3s                0.024646       0.023237
                                                         0.071007       0.033037
                                                         0.237636       0.065312
                                                         0.680928       0.047064
                                                         1.933558      -0.462606

                          1       4    4s                0.024646       0.005162
                                                         0.071007       0.074011
                                                         0.237636      -0.047989
                                                         0.680928      -0.668780
                                                         1.933558       0.448387

                          1       5    5s                0.024646       0.052262
                                                         0.071007      -0.012156
                                                         0.237636      -0.070069
                                                         0.680928       0.011411
                                                         1.933558       0.006013

                          1       6    2px               0.024646       0.000822
                                                         0.071007      -0.000886
                                                         0.237636       0.077898
                                                         0.680928      -1.218050
                                                         1.933558       5.053657
                          1       6    2py               0.024646       0.000822
                                                         0.071007      -0.000886
                                                         0.237636       0.077898
                                                         0.680928      -1.218050
                                                         1.933558       5.053657
                          1       6    2pz               0.024646       0.000822
                                                         0.071007      -0.000886
                                                         0.237636       0.077898
                                                         0.680928      -1.218050
                                                         1.933558       5.053657

                          1       7    3px               0.024646      -0.010239
                                                         0.071007      -0.021942
                                                         0.237636       0.080413
                                                         0.680928       0.093238
                                                         1.933558       0.147169
                          1       7    3py               0.024646      -0.010239
                                                         0.071007      -0.021942
                                                         0.237636       0.080413
                                                         0.680928       0.093238
                                                         1.933558       0.147169
                          1       7    3pz               0.024646      -0.010239
                                                         0.071007      -0.021942
                                                         0.237636       0.080413
                                                         0.680928       0.093238
                                                         1.933558       0.147169

                          1       8    4px               0.024646       0.000237
                                                         0.071007       0.023413
                                                         0.237636       0.129113
                                                         0.680928       0.121719
                                                         1.933558       0.036550
                          1       8    4py               0.024646       0.000237
                                                         0.071007       0.023413
                                                         0.237636       0.129113
                                                         0.680928       0.121719
                                                         1.933558       0.036550
                          1       8    4pz               0.024646       0.000237
                                                         0.071007       0.023413
                                                         0.237636       0.129113
                                                         0.680928       0.121719
                                                         1.933558       0.036550

                          1       9    5px               0.024646      -0.012357
                                                         0.071007       0.058147
                                                         0.237636       0.060042
                                                         0.680928       0.050984
                                                         1.933558       0.171511
                          1       9    5py               0.024646      -0.012357
                                                         0.071007       0.058147
                                                         0.237636       0.060042
                                                         0.680928       0.050984
                                                         1.933558       0.171511
                          1       9    5pz               0.024646      -0.012357
                                                         0.071007       0.058147
                                                         0.237636       0.060042
                                                         0.680928       0.050984
                                                         1.933558       0.171511

                          1      10    3dx2              0.024646      -0.000157
                                                         0.071007       0.006388
                                                         0.237636       0.091398
                                                         0.680928       0.100225
                                                         1.933558      -0.256537
                          1      10    3dxy              0.024646      -0.000271
                                                         0.071007       0.011064
                                                         0.237636       0.158306
                                                         0.680928       0.173596
                                                         1.933558      -0.444335
                          1      10    3dxz              0.024646      -0.000271
                                                         0.071007       0.011064
                                                         0.237636       0.158306
                                                         0.680928       0.173596
                                                         1.933558      -0.444335
                          1      10    3dy2              0.024646      -0.000157
                                                         0.071007       0.006388
                                                         0.237636       0.091398
                                                         0.680928       0.100225
                                                         1.933558      -0.256537
                          1      10    3dyz              0.024646      -0.000271
                                                         0.071007       0.011064
                                                         0.237636       0.158306
                                                         0.680928       0.173596
                                                         1.933558      -0.444335
                          1      10    3dz2              0.024646      -0.000157
                                                         0.071007       0.006388
                                                         0.237636       0.091398
                                                         0.680928       0.100225
                                                         1.933558      -0.256537

                          1      11    4dx2              0.024646      -0.000002
                                                         0.071007       0.016088
                                                         0.237636       0.000035
                                                         0.680928      -0.002278
                                                         1.933558      -0.014809
                          1      11    4dxy              0.024646      -0.000003
                                                         0.071007       0.027866
                                                         0.237636       0.000061
                                                         0.680928      -0.003946
                                                         1.933558      -0.025650
                          1      11    4dxz              0.024646      -0.000003
                                                         0.071007       0.027866
                                                         0.237636       0.000061
                                                         0.680928      -0.003946
                                                         1.933558      -0.025650
                          1      11    4dy2              0.024646      -0.000002
                                                         0.071007       0.016088
                                                         0.237636       0.000035
                                                         0.680928      -0.002278
                                                         1.933558      -0.014809
                          1      11    4dyz              0.024646      -0.000003
                                                         0.071007       0.027866
                                                         0.237636       0.000061
                                                         0.680928      -0.003946
                                                         1.933558      -0.025650
                          1      11    4dz2              0.024646      -0.000002
                                                         0.071007       0.016088
                                                         0.237636       0.000035
                                                         0.680928      -0.002278
                                                         1.933558      -0.014809

                          1      12    4fx3              0.024646      -0.000304
                                                         0.071007       0.004674
                                                         0.237636      -0.004905
                                                         0.680928      -0.023032
                                                         1.933558       0.088408
                          1      12    4fx2y             0.024646      -0.000679
                                                         0.071007       0.010451
                                                         0.237636      -0.010968
                                                         0.680928      -0.051501
                                                         1.933558       0.197686
                          1      12    4fx2z             0.024646      -0.000679
                                                         0.071007       0.010451
                                                         0.237636      -0.010968
                                                         0.680928      -0.051501
                                                         1.933558       0.197686
                          1      12    4fxy2             0.024646      -0.000679
                                                         0.071007       0.010451
                                                         0.237636      -0.010968
                                                         0.680928      -0.051501
                                                         1.933558       0.197686
                          1      12    4fxyz             0.024646      -0.001176
                                                         0.071007       0.018102
                                                         0.237636      -0.018996
                                                         0.680928      -0.089202
                                                         1.933558       0.342401
                          1      12    4fxz2             0.024646      -0.000679
                                                         0.071007       0.010451
                                                         0.237636      -0.010968
                                                         0.680928      -0.051501
                                                         1.933558       0.197686
                          1      12    4fy3              0.024646      -0.000304
                                                         0.071007       0.004674
                                                         0.237636      -0.004905
                                                         0.680928      -0.023032
                                                         1.933558       0.088408
                          1      12    4fy2z             0.024646      -0.000679
                                                         0.071007       0.010451
                                                         0.237636      -0.010968
                                                         0.680928      -0.051501
                                                         1.933558       0.197686
                          1      12    4fyz2             0.024646      -0.000679
                                                         0.071007       0.010451
                                                         0.237636      -0.010968
                                                         0.680928      -0.051501
                                                         1.933558       0.197686
                          1      12    4fz3              0.024646      -0.000304
                                                         0.071007       0.004674
                                                         0.237636      -0.004905
                                                         0.680928      -0.023032
                                                         1.933558       0.088408

                          2       1    1s         

     AE Potential information for                                            ALL

       Description:                                       All-electron potential
                                          Krack, Parrinello, PCCP 2, 2105 (2000)

       Gaussian exponent of the core charge distribution:               3.125000
       Electronic configuration (s p d ...):                           3   0   0

  2. Atomic kind: h                                     Number of atoms:       1

     Orbital Basis Set                                        aug-TZVP-MOLOPT-ae

       Number of orbital shell sets:                                           1
       Number of orbital shells:                                               9
       Number of primitive Cartesian functions:                                6
       Number of Cartesian basis functions:                                   25
       Number of spherical basis functions:                                   23
       Norm type:                                                              2

       Normalised Cartesian orbitals:

                        Set   Shell   Orbital            Exponent    Coefficient

                          1       1    1s                0.030000       0.000000
                                                         0.091371      -0.049397
                                                         0.293823      -0.051765
                                                         1.065127       0.831136
                                                         4.947701      -0.270539
                                                        34.177738      -6.423540

                          1       2    2s                0.030000       0.000000
                                                         0.091371      -0.041080
                                                         0.293823       0.227881
                                                         1.065127       0.154529
                                                         4.947701       0.528758
                                                        34.177738       3.211471

                          1       3    3s                0.030000       0.000000
                                                         0.091371       0.076395
                                                         0.293823       0.077306
                                                         1.065127       0.164523
                                                         4.947701      -0.040048
                                                        34.177738      -1.131577

                          1       4    4s                0.030000       0.043550
                                                         0.091371      -0.026138
                                                         0.293823      -0.246542
                                                         1.065127      -0.077212
                                                         4.947701       0.000000
                                                        34.177738       0.000000

                          1       5    2px               0.030000       0.000000
                                                         0.091371       0.008886
                                                         0.293823      -0.007684
                                                         1.065127       1.416453
                                                         4.947701       1.341091
                                                        34.177738     -11.084238
                          1       5    2py               0.030000       0.000000
                                                         0.091371       0.008886
                                                         0.293823      -0.007684
                                                         1.065127       1.416453
                                                         4.947701       1.341091
                                                        34.177738     -11.084238
                          1       5    2pz               0.030000       0.000000
                                                         0.091371       0.008886
                                                         0.293823      -0.007684
                                                         1.065127       1.416453
                                                         4.947701       1.341091
                                                        34.177738     -11.084238

                          1       6    3px               0.030000       0.000000
                                                         0.091371      -0.013062
                                                         0.293823       0.330130
                                                         1.065127       0.106963
                                                         4.947701      -0.549928
                                                        34.177738       9.643751
                          1       6    3py               0.030000       0.000000
                                                         0.091371      -0.013062
                                                         0.293823       0.330130
                                                         1.065127       0.106963
                                                         4.947701      -0.549928
                                                        34.177738       9.643751
                          1       6    3pz               0.030000       0.000000
                                                         0.091371      -0.013062
                                                         0.293823       0.330130
                                                         1.065127       0.106963
                                                         4.947701      -0.549928
                                                        34.177738       9.643751

                          1       7    4px               0.030000       0.014060
                                                         0.091371       0.022273
                                                         0.293823      -0.026384
                                                         1.065127       0.024249
                                                         4.947701       0.000000
                                                        34.177738       0.000000
                          1       7    4py               0.030000       0.014060
                                                         0.091371       0.022273
                                                         0.293823      -0.026384
                                                         1.065127       0.024249
                                                         4.947701       0.000000
                                                        34.177738       0.000000
                          1       7    4pz               0.030000       0.014060
                                                         0.091371       0.022273
                                                         0.293823      -0.026384
                                                         1.065127       0.024249
                                                         4.947701       0.000000
                                                        34.177738       0.000000

                          1       8    3dx2              0.030000       0.000000
                                                         0.091371      -0.004737
                                                         0.293823       0.052231
                                                         1.065127       1.617163
                                                         4.947701      -1.124420
                                                        34.177738       9.702470
                          1       8    3dxy              0.030000       0.000000
                                                         0.091371      -0.008204
                                                         0.293823       0.090468
                                                         1.065127       2.801009
                                                         4.947701      -1.947552
                                                        34.177738      16.805171
                          1       8    3dxz              0.030000       0.000000
                                                         0.091371      -0.008204
                                                         0.293823       0.090468
                                                         1.065127       2.801009
                                                         4.947701      -1.947552
                                                        34.177738      16.805171
                          1       8    3dy2              0.030000       0.000000
                                                         0.091371      -0.004737
                                                         0.293823       0.052231
                                                         1.065127       1.617163
                                                         4.947701      -1.124420
                                                        34.177738       9.702470
                          1       8    3dyz              0.030000       0.000000
                                                         0.091371      -0.008204
                                                         0.293823       0.090468
                                                         1.065127       2.801009
                                                         4.947701      -1.947552
                                                        34.177738      16.805171
                          1       8    3dz2              0.030000       0.000000
                                                         0.091371      -0.004737
                                                         0.293823       0.052231
                                                         1.065127       1.617163
                                                         4.947701      -1.124420
                                                        34.177738       9.702470

                          1       9    4dx2              0.030000       0.002444
                                                         0.091371       0.004703
                                                         0.293823       0.069647
                                                         1.065127       0.196246
                                                         4.947701       0.000000
                                                        34.177738       0.000000
                          1       9    4dxy              0.030000       0.004233
                                                         0.091371       0.008146
                                                         0.293823       0.120632
                                                         1.065127       0.339908
                                                         4.947701       0.000000
                                                        34.177738       0.000000
                          1       9    4dxz              0.030000       0.004233
                                                         0.091371       0.008146
                                                         0.293823       0.120632
                                                         1.065127       0.339908
                                                         4.947701       0.000000
                                                        34.177738       0.000000
                          1       9    4dy2              0.030000       0.002444
                                                         0.091371       0.004703
                                                         0.293823       0.069647
                                                         1.065127       0.196246
                                                         4.947701       0.000000
                                                        34.177738       0.000000
                          1       9    4dyz              0.030000       0.004233
                                                         0.091371       0.008146
                                                         0.293823       0.120632
                                                         1.065127       0.339908
                                                         4.947701       0.000000
                                                        34.177738       0.000000
                          1       9    4dz2              0.030000       0.002444
                                                         0.091371       0.004703
                                                         0.293823       0.069647
                                                         1.065127       0.196246
                                                         4.947701       0.000000
                                                        34.177738       0.000000

     RI Auxiliary Basis Set             RI_aug-TZVP-MOLOPT-ae_N_RI_015_s_p_d_f_g

       Number of orbital shell sets:                                           7
       Number of orbital shells:                                               7
       Number of primitive Cartesian functions:                                7
       Number of Cartesian basis functions:                                   16
       Number of spherical basis functions:                                   15
       Norm type:                                                              2

       Normalised Cartesian orbitals:

                        Set   Shell   Orbital            Exponent    Coefficient

                          1       1    1s                0.422212       0.373300

                          2       1    5px               0.528968       0.643024
                          2       1    5py               0.528968       0.643024
                          2       1    5pz               0.528968       0.643024

                          3       1    2s                0.964505       0.693647

                          4       1    7dx2              1.311589       2.645791
                          4       1    7dxy              1.311589       4.582645
                          4       1    7dxz              1.311589       4.582645
                          4       1    7dy2              1.311589       2.645791
                          4       1    7dyz              1.311589       4.582645
                          4       1    7dz2              1.311589       2.645791

                          5       1    6px               2.125057       3.657239
                          5       1    6py               2.125057       3.657239
                          5       1    6pz               2.125057       3.657239

                          6       1    3s                3.460805       1.808393

                          7       1    4s               10.696328       4.215374

       Atomic covalent radius [Angstrom]:                                  0.320

       Atomic van der Waals radius [Angstrom]:                             1.090

     The atoms of this atomic kind are PAW atoms (GAPW):
       Hard Gaussian function radius:                                      1.200
       Rho0 radius:                                                        1.200
       Maximum GTO radius used for PAW projector construction:            24.566

     GAPW Soft Basis Set                                 aug-TZVP-MOLOPT-ae_soft

       Number of orbital shell sets:                                           1
       Number of orbital shells:                                               9
       Number of primitive Cartesian functions:                                5
       Number of Cartesian basis functions:                                   25
       Number of spherical basis functions:                                   23
       Norm type:                                                              2

       Normalised Cartesian orbitals:

                        Set   Shell   Orbital            Exponent    Coefficient

                          1       1    1s                0.030000       0.000000
                                                         0.091371      -0.049397
                                                         0.293823      -0.051765
                                                         1.065127       0.831136
                                                         4.947701      -0.270539

                          1       2    2s                0.030000       0.000000
                                                         0.091371      -0.041080
                                                         0.293823       0.227881
                                                         1.065127       0.154529
                                                         4.947701       0.528758

                          1       3    3s                0.030000       0.000000
                                                         0.091371       0.076395
                                                         0.293823       0.077306
                                                         1.065127       0.164523
                                                         4.947701      -0.040048

                          1       4    4s                0.030000       0.043550
                                                         0.091371      -0.026138
                                                         0.293823      -0.246542
                                                         1.065127      -0.077212
                                                         4.947701       0.000000

                          1       5    2px               0.030000       0.000000
                                                         0.091371       0.008886
                                                         0.293823      -0.007684
                                                         1.065127       1.416453
                                                         4.947701       1.341091
                          1       5    2py               0.030000       0.000000
                                                         0.091371       0.008886
                                                         0.293823      -0.007684
                                                         1.065127       1.416453
                                                         4.947701       1.341091
                          1       5    2pz               0.030000       0.000000
                                                         0.091371       0.008886
                                                         0.293823      -0.007684
                                                         1.065127       1.416453
                                                         4.947701       1.341091

                          1       6    3px               0.030000       0.000000
                                                         0.091371      -0.013062
                                                         0.293823       0.330130
                                                         1.065127       0.106963
                                                         4.947701      -0.549928
                          1       6    3py               0.030000       0.000000
                                                         0.091371      -0.013062
                                                         0.293823       0.330130
                                                         1.065127       0.106963
                                                         4.947701      -0.549928
                          1       6    3pz               0.030000       0.000000
                                                         0.091371      -0.013062
                                                         0.293823       0.330130
                                                         1.065127       0.106963
                                                         4.947701      -0.549928

                          1       7    4px               0.030000       0.014060
                                                         0.091371       0.022273
                                                         0.293823      -0.026384
                                                         1.065127       0.024249
                                                         4.947701       0.000000
                          1       7    4py               0.030000       0.014060
                                                         0.091371       0.022273
                                                         0.293823      -0.026384
                                                         1.065127       0.024249
                                                         4.947701       0.000000
                          1       7    4pz               0.030000       0.014060
                                                         0.091371       0.022273
                                                         0.293823      -0.026384
                                                         1.065127       0.024249
                                                         4.947701       0.000000

                          1       8    3dx2              0.030000       0.000000
                                                         0.091371      -0.004737
                                                         0.293823       0.052231
                                                         1.065127       1.617163
                                                         4.947701      -1.124420
                          1       8    3dxy              0.030000       0.000000
                                                         0.091371      -0.008204
                                                         0.293823       0.090468
                                                         1.065127       2.801009
                                                         4.947701      -1.947552
                          1       8    3dxz              0.030000       0.000000
                                                         0.091371      -0.008204
                                                         0.293823       0.090468
                                                         1.065127       2.801009
                                                         4.947701      -1.947552
                          1       8    3dy2              0.030000       0.000000
                                                         0.091371      -0.004737
                                                         0.293823       0.052231
                                                         1.065127       1.617163
                                                         4.947701      -1.124420
                          1       8    3dyz              0.030000       0.000000
                                                         0.091371      -0.008204
                                                         0.293823       0.090468
                                                         1.065127       2.801009
                                                         4.947701      -1.947552
                          1       8    3dz2              0.030000       0.000000
                                                         0.091371      -0.004737
                                                         0.293823       0.052231
                                                         1.065127       1.617163
                                                         4.947701      -1.124420

                          1       9    4dx2              0.030000       0.002444
                                                         0.091371       0.004703
                                                         0.293823       0.069647
                                                         1.065127       0.196246
                                                         4.947701       0.000000
                          1       9    4dxy              0.030000       0.004233
                                                         0.091371       0.008146
                                                         0.293823       0.120632
                                                         1.065127       0.339908
                                                         4.947701       0.000000
                          1       9    4dxz              0.030000       0.004233
                                                         0.091371       0.008146
                                                         0.293823       0.120632
                                                         1.065127       0.339908
                                                         4.947701       0.000000
                          1       9    4dy2              0.030000       0.002444
                                                         0.091371       0.004703
                                                         0.293823       0.069647
                                                         1.065127       0.196246
                                                         4.947701       0.000000
                          1       9    4dyz              0.030000       0.004233
                                                         0.091371       0.008146
                                                         0.293823       0.120632
                                                         1.065127       0.339908
                                                         4.947701       0.000000
                          1       9    4dz2              0.030000       0.002444
                                                         0.091371       0.004703
                                                         0.293823       0.069647
                                                         1.065127       0.196246
                                                         4.947701       0.000000

     AE Potential information for                                            ALL

       Description:                                       All-electron potential
                                          Krack, Parrinello, PCCP 2, 2105 (2000)

       Gaussian exponent of the core charge distribution:              12.500000
       Electronic configuration (s p d ...):                           1   0   0


 MOLECULE KIND INFORMATION


 All atoms are their own molecule, skipping detailed information


 TOTAL NUMBERS AND MAXIMUM NUMBERS

  Total number of            - Atomic kinds:                                   2
                             - Atoms:                                          2
                             - Shell sets:                                     3
                             - Shells:                                        22
                             - Primitive Cartesian functions:                 17
                             - Cartesian basis functions:                     65
                             - Spherical basis functions:                     58

  Maximum angular momentum of the orbital basis functions:                     3


 MODULE QUICKSTEP: ATOMIC COORDINATES IN ANGSTROM

   Atom Kind Element         X             Y             Z       Z(eff)     Mass
      1    1 li    3     15.000000     15.000000     14.202603   3.0000   6.9410
      2    2 h     1     15.000000     15.000000     15.797397   1.0000   1.0079



 SCF PARAMETERS         Density guess:                                    ATOMIC
                        --------------------------------------------------------
                        max_scf:                                             500
                        max_scf_history:                                       0
                        max_diis:                                              4
                        --------------------------------------------------------
                        eps_scf:                                        1.00E-06
[...]
 MP_SendRecv          3775                 532802.
 MP_ISendRecv         7498                 278443.
 MP_Wait             22717
 MP_comm_split         134
 MP_ISend            14172                2083888.
 MP_IRecv            14162                2085361.
 -------------------------------------------------------------------------------


 -------------------------------------------------------------------------------
 -                                                                             -
 -                           R E F E R E N C E S                               -
 -                                                                             -
 -------------------------------------------------------------------------------
 
 CP2K version 2025.1 (Development Version), the CP2K developers group (2025).
 CP2K is freely available from https://www.cp2k.org/ .
 
 T. D. Kuehne, M. Iannuzzi, M. Del Ben, V. V. Rybkin, P. Seewald, F. Stein, T. 
 Laino, R. Z. Khaliullin, O. Schuett, F. Schiffmann, D. Golze, J. Wilhelm, S. 
 Chulkov, M. H. Bani-Hashemian, V. Weber, U. Borstnik, M. Taillefumier, A. S. 
 Jakobovits, A. Lazzaro, H. Pabst, T. Mueller, R. Schade, M. Guidon, S. 
 Andermatt, N. Holmberg, G. K. Schenter, A. Hehn, A. Bussy, F. Belleflamme, G. 
 Tabacchi, A. Gloess, M. Lass, I. Bethune, C. J. Mundy, C. Plessl, M. Watkins, 
 J. VandeVondele, M. Krack, J. Hutter.
 J. Chem. Phys. 152, 194103 (2020).
 CP2K: An electronic structure and molecular dynamics software package - 
 Quickstep: Efficient and accurate electronic structure calculations.
 https://doi.org/10.1063/5.0007045

 J. Wilhelm, D. Golze, L. Talirz, J. Hutter, C. A. Pignedoli.
 J. Phys. Chem. Lett. 9, 306-312 (2018).
 Toward GW calculations on thousands of atoms.
 https://doi.org/10.1021/acs.jpclett.7b02740

 J. Wilhelm, J. Hutter.
 Phys. Rev. B 95, 235123 (2017).
 Periodic GW calculations in the Gaussian and plane-waves scheme.
 https://doi.org/10.1103/PhysRevB.95.235123

 O. Schuett, P. Messmer, J. Hutter, J. VandeVondele.
 Electronic Structure Calculations on Graphics Processing Units, 173-190 (2016).
 GPU-Accelerated Sparse Matrix-Matrix Multiplication for Linear Scaling Density 
 Functional Theory.
 https://doi.org/10.1002/9781118670712.ch8

 J. Wilhelm, M. Del Ben, J. Hutter.
 J. Chem. Theory Comput. 12, 3623-3635 (2016).
 GW in the Gaussian and plane waves scheme with application to linear acenes.
 https://doi.org/10.1021/acs.jctc.6b00380

 M. Del Ben, O. Schuett, T. Wentz, P. Messmer, J. Hutter, J. VandeVondele.
 Comput. Phys. Commun. 187, 120-129 (2015).
 Enabling simulation at the fifth rung of DFT: Large scale RPA calculations with 
 excellent time to solution.
 https://doi.org/10.1016/j.cpc.2014.10.021

 J. Hutter, M. Iannuzzi, F. Schiffmann, J. VandeVondele.
 WIREs Comput Mol Sci. 4, 15-25 (2014).
 CP2K: atomistic simulations of condensed matter systems.
 https://doi.org/10.1002/wcms.1159

 U. Borstnik, J. VandeVondele, V. Weber, J. Hutter.
 Parallel Comput. 40, 47-58 (2014).
 Sparse matrix multiplication: The distributed block-compressed sparse row 
 library.
 https://doi.org/10.1016/j.parco.2014.03.012

 M. Del Ben, J. Hutter, J. VandeVondele.
 J. Chem. Theory Comput. 9, 2654-2671 (2013).
 Electron Correlation in the Condensed Phase from a Resolution of Identity 
 Approach Based on the Gaussian and Plane Waves Scheme.
 https://doi.org/10.1021/ct4002202

 M. Del Ben, J. Hutter, J. VandeVondele.
 J. Chem. Theory Comput. 8, 4177-4188 (2012).
 Second-Order Moller-Plesset Perturbation Theory in the Condensed Phase: An 
 Efficient and Massively Parallel Gaussian and Plane Waves Approach.
 https://doi.org/10.1021/ct300531w

 M. Guidon, J. Hutter, J. VandeVondele.
 J. Chem. Theory Comput. 5, 3010-3021 (2009).
 Robust Periodic Hartree-Fock Exchange for Large-Scale Simulations Using 
 Gaussian Basis Sets.
 https://doi.org/10.1021/ct900494g

 M. Guidon, F. Schiffmann, J. Hutter, J. VandeVondele.
 J. Chem. Phys. 128, 214104 (2008).
 Ab initio molecular dynamics using hybrid density functionals.
 https://doi.org/10.1063/1.2931945

 L. Genovese, T. Deutsch, S. Goedecker.
 J. Chem. Phys. 127, 054704 (2007).
 Efficient and accurate three-dimensional Poisson solver for surface problems.
 https://doi.org/10.1063/1.2754685

 J. VandeVondele, J. Hutter.
 J. Chem. Phys. 127, 114105 (2007).
 Gaussian basis sets for accurate calculations on molecular systems in gas and 
 condensed phases.
 https://doi.org/10.1063/1.2770708

 L. Genovese, T. Deutsch, A. Neelov, S. Goedecker, G. Beylkin.
 J. Chem. Phys. 125, 074105 (2006).
 Efficient solution of Poisson's equation with free boundary conditions.
 https://doi.org/10.1063/1.2335442

 M. Frigo, S. G. Johnson.
 Proc. IEEE 93, 216-231 (2005).
 The design and implementation of FFTW3.
 https://doi.org/10.1109/JPROC.2004.840301

 M. Krack, M. Parrinello.
 Phys. Chem. Chem. Phys. 2, 2105-2112 (2000).
 All-electron ab-initio molecular dynamics.
 https://doi.org/10.1039/b001167n

 G. Lippert, J. Hutter, M. Parrinello.
 Theor. Chem. Acc. 103, 124-140 (1999).
 The Gaussian and augmented-plane-wave density functional method for ab initio 
 molecular dynamics simulations.
 https://doi.org/10.1007/s002140050523

 J. P. Perdew, K. Burke, M. Ernzerhof.
 Phys. Rev. Lett. 77, 3865-3868 (1996).
 Generalized gradient approximation made simple.
 https://doi.org/10.1103/PhysRevLett.77.3865


 -------------------------------------------------------------------------------
 -                                                                             -
 -                                T I M I N G                                  -
 -                                                                             -
 -------------------------------------------------------------------------------
 SUBROUTINE                       CALLS  ASD         SELF TIME        TOTAL TIME
                                MAXIMUM       AVERAGE  MAXIMUM  AVERAGE  MAXIMUM
 CP2K                                 1  1.0    0.046    0.074  449.984  449.985
 qs_energies                          1  2.0    0.001    0.001  448.676  448.900
 scf_env_do_scf                       1  3.0    0.000    0.000  443.976  443.976
 scf_env_do_scf_inner_loop           80  4.0    0.002    0.005  443.975  443.976
 qs_ks_build_kohn_sham_matrix        81  7.0    0.013    0.014  338.560  338.573
 qs_ks_update_qs_env                 80  5.0    0.001    0.001  336.104  336.116
 rebuild_ks_matrix                   80  6.0    0.000    0.000  336.096  336.110
 fft_wrap_pw1pw2                   1692  9.9    0.039    0.047  191.587  193.484
 fft_wrap_pw1pw2_250               1206 11.1    8.596    9.525  185.823  188.109
 fft3d_ps                          1692 11.9   82.652   86.668  150.381  152.698
 pw_poisson_solve                    81  8.0    3.546    3.657  129.145  129.207
 qs_vxc_create                       81  8.0    0.001    0.001  116.313  116.313
 xc_vxc_pw_create                    80  9.0    2.067    2.164  116.312  116.312
 ps_wavelet_solve                    81  9.0   73.102   77.405   85.450   85.616
 xc_pw_derive                       480 11.0    0.006    0.007   83.844   85.569
 mp_alltoall_d54                     81 10.0    7.503   66.932    7.503   66.932
 xc_rho_set_and_dset_create          80 10.0    1.607    1.869   57.955   59.459
 gspace_mixing                       79  5.0    1.543    1.557   58.896   58.897
 xc_pw_divergence                    80 10.0    0.004    0.004   55.379   56.726
 mp_alltoall_z22v                  1692 13.9   41.279   53.891   41.279   53.891
 qs_rho_update_rho_low               81  5.0    0.001    0.001   49.078   49.079
 calculate_rho_elec                  81  6.0    1.583    1.596   48.992   48.994
 broyden_mixing                      79  6.0   44.331   45.044   45.120   45.363
 x_to_yz                            885 13.1   18.008   18.438   38.354   39.469
 yz_to_x                            807 12.8    8.419   10.067   29.352   37.143
 density_rs2pw                       81  7.0    0.006    0.006   36.197   36.590
 sum_up_and_integrate                81  8.0    0.001    0.002   26.156   26.197
 integrate_v_rspace                  81  9.0    0.002    0.003   25.662   25.775
 potential_pw2rs                     81 10.0    0.073    0.082   25.131   25.235
 prepare_gapw_den                    81  8.0    0.001    0.002   22.366   22.669
 put_rho0_on_grid                    81  9.0    1.586    1.603   20.183   20.485
 hfx_ks_matrix                       81  8.0    0.003    0.004   19.690   19.785
 integrate_four_center               81  9.0    1.909    3.654   19.685   19.780
 transfer_pw2rs                     406 10.6    0.006    0.008   15.079   15.148
 mp_sync                            851  9.5   12.449   14.716   12.449   14.716
 pw_scatter_p                       885 12.1   14.022   14.309   14.022   14.309
 xc_functional_eval                 400 10.9    0.001    0.002   12.097   13.462
 pbe_lda_eval                       400 11.9   12.096   13.460   12.096   13.460
 transfer_rs2pw                     406  8.4    0.010    0.014   12.826   12.986
 pw_gather_p                        807 11.8   11.547   12.551   11.547   12.551
 integrate_four_center_main          81 10.0    0.410    5.679    0.694   12.449
 mp_waitany                       13664 11.5   10.459   11.496   10.459   11.496
 transfer_pw2rs_250                 163 11.0    4.189    4.401   11.196   11.421
 grid_collocate_task_list            81  7.0   10.660   11.085   10.660   11.085
 pw_derive                          723 11.3    9.606   10.012    9.606   10.012
 transfer_rs2pw_250                 163 10.0    4.380    4.563    9.680    9.852
 mp_sum_d                          2014  6.4    5.850    8.911    5.850    8.911
 integrate_vhg0_rspace               81  8.0    0.046    0.057    7.141    7.151
 integrate_four_center_bin         6272 11.0    0.284    6.770    0.284    6.770
 fft_wrap_pw1pw2_90                 162 10.5    0.241    0.295    4.764    5.584
 cp2k_distribution_to_z_slices       81  9.0    3.120    3.259    5.057    5.542
 pw_copy                           1210 10.6    5.140    5.504    5.140    5.504
 mp_alltoall_d45                     82 10.0    3.931    5.391    3.931    5.391
 pw_poisson_set                      82  8.9    0.003    0.003    4.798    4.860
 mp_alltoall_d11v                  1416  9.4    3.362    4.834    3.362    4.834
 pw_copy_to_array                   807 11.8    4.300    4.631    4.300    4.631
 calc_screening_functions             1 10.0    4.036    4.193    4.186    4.343
 pw_axpy                            805  9.3    3.558    3.858    3.558    3.858
 rs_grid_zero                       407 11.2    3.552    3.623    3.552    3.623
 mp2_main                             1  3.0    0.000    0.000    3.372    3.596
 calculate_vxc_atom                  81  8.0    0.036    0.341    3.039    3.040
 pw_integral_ab_c1d_c1d_gs           81  9.0    2.409    2.633    2.808    2.952
 pw_copy_from_array                 885 12.1    2.412    2.887    2.412    2.887
 gaVxcgb_GC                         160  9.0    0.108    2.586    0.108    2.586
 compute_vec_Sigma_x_minus_vxc_       1  4.0    0.000    0.000    2.467    2.467
 mp_sum_dv                         2518 10.7    1.998    2.205    1.998    2.205
 transfer_pw2rs_90                   81 12.0    0.632    0.676    1.975    2.142
 calculate_rho_atom                 162  9.0    0.359    2.139    0.359    2.139
 pw_poisson_rebuild                  81  9.0    0.000    0.000    1.821    1.853
 ps_wavelet_create                    1 10.0    0.000    0.000    1.821    1.852
 RS_z_slice_distribution              1 11.0    1.659    1.728    1.821    1.852
 transfer_rs2pw_90                   81  9.0    0.502    0.520    1.504    1.753
 pw_zero                            482 10.3    1.639    1.734    1.639    1.734
 transfer_pw2rs_30                   81 12.0    0.904    0.943    1.468    1.555
 mp_waitall_1                     14130 12.1    1.013    1.387    1.013    1.387
 transfer_rs2pw_30                   81  9.0    0.696    0.736    1.306    1.327
 mp_isend_dv                      13779 11.6    0.993    1.268    0.993    1.268
 Vh_1c_gg_integrals                  81  8.0    0.019    0.308    0.510    1.246
 mp_isend_dm3                      1952 11.5    0.544    1.140    0.544    1.140
 scale_and_distribute               162 10.0    1.076    1.126    1.076    1.126
 mp_max_i                           594  3.0    0.633    1.095    0.633    1.095
 init_scf_run                         1  3.0    0.000    0.000    1.063    1.064
 scf_env_initial_rho_setup            1  4.0    0.000    0.000    1.056    1.057
 mp_sum_dm                          571  7.6    0.739    1.041    0.739    1.041
 qs_init_subsys                       1  2.0    0.004    0.004    0.868    0.868
 qs_env_setup                         1  3.0    0.000    0.000    0.856    0.858
 qs_env_rebuild_pw_env                2  3.5    0.000    0.000    0.855    0.857
 pw_env_rebuild                       1  5.0    0.001    0.001    0.854    0.856
 mp_sendrecv_dv                    3726 10.0    0.807    0.856    0.807    0.856
 pw_grid_setup                        4  6.0    0.000    0.000    0.838    0.839
 pw_grid_setup_internal               4  7.0    0.019    0.023    0.837    0.839
 mp_irecv_dm3                      1952 11.5    0.484    0.824    0.484    0.824
 fft_wrap_pw1pw2_30                 162 10.5    0.040    0.045    0.782    0.812
 mp2_gpw_main                         1  4.0    0.000    0.000    0.725    0.735
 pw_grid_sort                         4  8.0    0.472    0.475    0.668    0.674
 rpa_ri_compute_en                    1  5.0    0.000    0.000    0.633    0.633
 rpa_num_int                          1  6.0    0.001    0.001    0.630    0.630
 qs_scf_new_mos                      80  5.0    0.001    0.001    0.627    0.629
 pw_scale                           321  9.5    0.481    0.547    0.481    0.547
 rs_gather_matrices                  81 10.0    0.001    0.006    0.404    0.540
 compute_GW_self_energy             100  7.0    0.001    0.001    0.487    0.512
 grid_integrate_task_list            81 10.0    0.124    0.510    0.124    0.510
 compute_GW_self_energy_deep        100  8.0    0.402    0.426    0.457    0.481
 transfer_pw2rs_10                   81 12.0    0.194    0.205    0.434    0.455
 mp_sum_i                            17  9.9    0.224    0.385    0.224    0.385
 restraint_control                    1  2.0    0.000    0.000    0.223    0.384
 mp2_main_alloc_hfx                   1  4.0    0.161    0.384    0.161    0.384
 eigensolver_symm                    81  6.0    0.003    0.003    0.356    0.356
 cp_fm_syevd                         86  7.0    0.001    0.001    0.343    0.344
 mp_isendrecv_dv                   7452 12.0    0.211    0.341    0.211    0.341
 transfer_rs2pw_10                   81  9.0    0.129    0.134    0.326    0.339
 cp_fm_redistribute_end              86  8.0    0.170    0.296    0.172    0.298
 mixing_init                          1  5.0    0.289    0.296    0.296    0.297
 xc_pw_smooth                        80 10.0    0.000    0.000    0.220    0.285
 powell_optimize                 100846 11.0    0.252    0.255    0.252    0.255
 cp_fm_syevd_base                    86  8.0    0.125    0.251    0.125    0.251
 calc_pair_dist_radii                 1 10.0    0.136    0.137    0.237    0.240
 mp_sum_l                           941  6.1    0.180    0.235    0.180    0.235
 integrate_four_center_load          81 10.0    0.000    0.000    0.159    0.212
 hfx_load_balance                     1 11.0    0.000    0.000    0.159    0.212
 hfx_load_balance_range               1 12.0    0.000    0.000    0.157    0.210
 sort_shells                          4  9.0    0.196    0.198    0.196    0.198
 fft_wrap_pw1pw2_10                 162 10.5    0.009    0.010    0.179    0.197
 calculate_dm_sparse                 80  6.0    0.000    0.001    0.191    0.194
 cp_dbcsr_plus_fm_fm_t               80  7.0    0.001    0.001    0.190    0.193
 scf_post_calculation_gpw             1  3.0    0.000    0.000    0.173    0.174
 write_available_results              1  4.0    0.000    0.000    0.172    0.174
 write_mo_free_results                1  5.0    0.026    0.028    0.172    0.174
 dbcsr_multiply_generic             101  8.1    0.005    0.005    0.146    0.150
 mp_irecv_dv                      13747 11.6    0.083    0.120    0.083    0.120
 pw_grid_assign                       4  8.0    0.103    0.106    0.106    0.106
 vxc_of_r_new                       320  9.0    0.001    0.015    0.004    0.102
 create_qs_kind_set                   1  2.0    0.000    0.000    0.098    0.100
 read_qs_kind                         2  3.0    0.023    0.032    0.098    0.100
 parallel_gemm_fm                   380  8.4    0.000    0.001    0.095    0.099
 parallel_gemm_fm_gemm              380  9.4    0.000    0.001    0.094    0.098
 cp_fm_gemm                         380 10.4    0.094    0.098    0.094    0.098
 dbcsr_complete_redistribute        263  8.4    0.010    0.013    0.089    0.092
 qs_energies_init_hamiltonians        1  3.0    0.000    0.000    0.091    0.091
 build_core_hamiltonian_matrix        1  4.0    0.000    0.000    0.087    0.087
 overlap_condnum                      1  5.0    0.000    0.000    0.085    0.085
 calculate_rho_atom_coeff            81  6.0    0.017    0.036    0.085    0.085
 copy_dbcsr_to_fm                    99  6.3    0.002    0.002    0.082    0.085
 make_m2s                           202  9.1    0.004    0.004    0.077    0.081
 rpa_num_int_RPA_matrix_operati     100  7.0    0.001    0.002    0.078    0.078
 parser_read_line                  3928  4.0    0.001    0.002    0.075    0.077
 parser_read_line_low                11  5.0    0.006    0.031    0.073    0.076
 mp2_ri_gpw_compute_in                1  5.0    0.000    0.000    0.075    0.075
 calculate_hirshfeld_normalizat       1  6.0    0.001    0.004    0.073    0.074
 integrate_four_center_getP          81 10.0    0.004    0.004    0.062    0.074
 hirshfeld_integration                1  6.0    0.001    0.002    0.072    0.073
 broadcast_input_information         11  6.0    0.013    0.018    0.067    0.073
 mp2_ri_gpw_compute_in_loop           1  6.0    0.000    0.000    0.072    0.072
 arnoldi_conjugate_gradient           5  6.0    0.002    0.002    0.067    0.067
 contract_B_L                         4  7.0    0.001    0.001    0.063    0.067
 offload_free_buffer                 89  8.5    0.052    0.062    0.052    0.062
 calc_mat_Q                         100  8.0    0.000    0.000    0.056    0.057
 update_ks_atom                      81  8.0    0.007    0.021    0.038    0.056
 contract_S_to_Q                    100  9.0    0.000    0.000    0.055    0.056
 copy_fm_to_dbcsr                   164  8.1    0.001    0.001    0.052    0.053
 multiply_cannon                    101  9.1    0.007    0.008    0.046    0.049
 integrate_four_center_dist_KS       81 10.0    0.004    0.005    0.047    0.048
 mp_bcast_i_src                      44  7.0    0.036    0.047    0.036    0.047
 cp_fm_to_fm_submat_general         112 10.1    0.045    0.046    0.045    0.046
 cp_fm_redistribute_start            86  8.0    0.035    0.036    0.045    0.046
 -------------------------------------------------------------------------------

 The number of warnings for this run is : 1
 
 -------------------------------------------------------------------------------
  **** **** ******  **  PROGRAM ENDED AT                 2025-03-16 12:23:36.269
 ***** ** ***  *** **   PROGRAM RAN ON                              i04r06c05s07
 **    ****   ******    PROGRAM RAN BY                                   di38fab
 ***** **    ** ** **   PROGRAM PROCESS ID                                775678
  **** **  *******  **  PROGRAM STOPPED IN /hppfs/scratch/04/di38fab/05_MOL/W4-1
                                           1+ALK/li_h/TZVP/GW+BSE/1e-3
