 DBCSR| CPU Multiplication driver                                           BLAS (U)
 DBCSR| Multrec recursion limit                                              512 (U)
 DBCSR| Multiplication stack size                                           1000 (D)
 DBCSR| Maximum elements for images                                    UNLIMITED (U)
 DBCSR| Multiplicative factor virtual images                                   1 (U)
 DBCSR| Use multiplication densification                                       T (D)
 DBCSR| Multiplication size stacks                                             3 (U)
 DBCSR| Use memory pool for CPU allocation                                     F (U)
 DBCSR| Number of 3D layers                                               SINGLE (U)
 DBCSR| Use MPI memory allocation                                              F (U)
 DBCSR| Use RMA algorithm                                                      F (U)
 DBCSR| Use Communication thread                                               T (U)
 DBCSR| Communication thread load                                             75 (D)
 DBCSR| MPI: My process id                                                     0
 DBCSR| MPI: Number of processes                                              24
 DBCSR| OMP: Current number of threads                                         4
 DBCSR| OMP: Max number of threads                                             4
 DBCSR| Split modifier for TAS multiplication algorithm                  1.0E+00 (U)


  **** **** ******  **  PROGRAM STARTED AT               2025-03-07 08:02:02.688
 ***** ** ***  *** **   PROGRAM STARTED ON                          i01r06c04s02
 **    ****   ******    PROGRAM STARTED BY                               di38fab
 ***** **    ** ** **   PROGRAM PROCESS ID                                949278
  **** **  *******  **  PROGRAM STARTED IN /hppfs/scratch/04/di38fab/05_MOL/W4-1
                                           1+ALK/li2/DZVP

 CP2K| version string:                 CP2K version 2025.1 (Development Version)
 CP2K| source code revision number:                                  git:47877ba
 CP2K| cp2kflags: omp libint fftw3 libxc parallel scalapack max_contr=4         
 CP2K| is freely available from                            https://www.cp2k.org/
 CP2K| Program compiled at                          Thu Feb 20 16:00:34 CET 2025
 CP2K| Program compiled on                                               login04
 CP2K| Program compiled for                                        Supermuc-foss
 CP2K| Data directory path          /hppfs/work/pn36zo/di38fab/newcp2k/cp2k/data
 CP2K| Input file name                                                    GW.inp

 GLOBAL| Force Environment number                                              1
 GLOBAL| Basis set file name            /hppfs/scratch/04/di38fab/04_TMD/BASIS_A
 GLOBAL| Potential file name            /hppfs/work/pn36zo/di38fab/cp2k/data/ALL
 GLOBAL| MM Potential file name                                     MM_POTENTIAL
 GLOBAL| Coordinate file name                                      __STD_INPUT__
 GLOBAL| Method name                                                        CP2K
 GLOBAL| Project name                                                       MoS2
 GLOBAL| Run type                                                         ENERGY
 GLOBAL| FFT library                                                       FFTW3
 GLOBAL| Diagonalization library                                       ScaLAPACK
 GLOBAL| DGEMM library                                                      BLAS
 GLOBAL| Orthonormality check for eigenvectors                          DISABLED
 GLOBAL| Matrix multiplication library                                 ScaLAPACK
 GLOBAL| All-to-all communication in single precision                          F
 GLOBAL| FFTs using library dependent lengths                                  F
 GLOBAL| Grid backend                                                       AUTO
 GLOBAL| Global print level                                               MEDIUM
 GLOBAL| MPI I/O enabled                                                       T
 GLOBAL| Total number of message passing processes                            24
 GLOBAL| Number of threads for this process                                    4
 GLOBAL| This output is from process                                           0
 GLOBAL| OpenMP stack size per thread (OMP_STACKSIZE)                    default
 GLOBAL| CPU model name             Intel(R) Xeon(R) Platinum 8174 CPU @ 3.10GHz

 MEMORY| system memory details [Kb]
 MEMORY|                        rank 0           min           max       average
 MEMORY| MemTotal             98436660      98436660      98436664      98436662
 MEMORY| MemFree              83819140      83819140      83906940      83863040
 MEMORY| Buffers                     0             0             0             0
 MEMORY| Cached                2403192       2399680       2403192       2401436
 MEMORY| Slab                  1223252       1211684       1223252       1217468
 MEMORY| SReclaimable           269096        264644        269096        266870
 MEMORY| MemLikelyFree        86491428      86491428      86571264      86531346


 *** Fundamental physical constants (SI units) ***

 *** Literature: B. J. Mohr and B. N. Taylor,
 ***             CODATA recommended values of the fundamental physical
 ***             constants: 2006, Web Version 5.1
 ***             http://physics.nist.gov/constants

 Speed of light in vacuum [m/s]                             2.99792458000000E+08
 Magnetic constant or permeability of vacuum [N/A**2]       1.25663706143592E-06
 Electric constant or permittivity of vacuum [F/m]          8.85418781762039E-12
 Planck constant (h) [J*s]                                  6.62606896000000E-34
 Planck constant (h-bar) [J*s]                              1.05457162825177E-34
 Elementary charge [C]                                      1.60217648700000E-19
 Electron mass [kg]                                         9.10938215000000E-31
 Electron g factor [ ]                                     -2.00231930436220E+00
 Proton mass [kg]                                           1.67262163700000E-27
 Fine-structure constant                                    7.29735253760000E-03
 Rydberg constant [1/m]                                     1.09737315685270E+07
 Avogadro constant [1/mol]                                  6.02214179000000E+23
 Boltzmann constant [J/K]                                   1.38065040000000E-23
 Atomic mass unit [kg]                                      1.66053878200000E-27
 Bohr radius [m]                                            5.29177208590000E-11

 *** Conversion factors ***

 [u] -> [a.u.]                                              1.82288848426455E+03
 [Angstrom] -> [Bohr] = [a.u.]                              1.88972613288564E+00
 [a.u.] = [Bohr] -> [Angstrom]                              5.29177208590000E-01
 [a.u.] -> [s]                                              2.41888432650478E-17
 [a.u.] -> [fs]                                             2.41888432650478E-02
 [a.u.] -> [J]                                              4.35974393937059E-18
 [a.u.] -> [N]                                              8.23872205491840E-08
 [a.u.] -> [K]                                              3.15774647902944E+05
 [a.u.] -> [kJ/mol]                                         2.62549961709828E+03
 [a.u.] -> [kcal/mol]                                       6.27509468713739E+02
 [a.u.] -> [Pa]                                             2.94210107994716E+13
 [a.u.] -> [bar]                                            2.94210107994716E+08
 [a.u.] -> [atm]                                            2.90362800883016E+08
 [a.u.] -> [eV]                                             2.72113838565563E+01
 [a.u.] -> [Hz]                                             6.57968392072181E+15
 [a.u.] -> [1/cm] (wave numbers)                            2.19474631370540E+05
 [a.u./Bohr**2] -> [1/cm]                                   5.14048714338585E+03
 

 CELL_TOP| Volume [angstrom^3]:                                     27000.000000
 CELL_TOP| Vector a [angstrom    30.000     0.000     0.000   |a| =    30.000000
 CELL_TOP| Vector b [angstrom     0.000    30.000     0.000   |b| =    30.000000
 CELL_TOP| Vector c [angstrom     0.000     0.000    30.000   |c| =    30.000000
 CELL_TOP| Angle (b,c), alpha [degree]:                                90.000000
 CELL_TOP| Angle (a,c), beta  [degree]:                                90.000000
 CELL_TOP| Angle (a,b), gamma [degree]:                                90.000000
 CELL_TOP| Numerically orthorhombic:                                         YES
 CELL_TOP| Periodicity                                                      NONE

 GENERATE|  Preliminary Number of Bonds generated:                             0
 GENERATE|  Achieved consistency in connectivity generation.

 CELL| Volume [angstrom^3]:                                         27000.000000
 CELL| Vector a [angstrom]:      30.000     0.000     0.000   |a| =    30.000000
 CELL| Vector b [angstrom]:       0.000    30.000     0.000   |b| =    30.000000
 CELL| Vector c [angstrom]:       0.000     0.000    30.000   |c| =    30.000000
 CELL| Angle (b,c), alpha [degree]:                                    90.000000
 CELL| Angle (a,c), beta  [degree]:                                    90.000000
 CELL| Angle (a,b), gamma [degree]:                                    90.000000
 CELL| Numerically orthorhombic:                                             YES
 CELL| Periodicity                                                          NONE

 CELL_REF| Volume [angstrom^3]:                                     27000.000000
 CELL_REF| Vector a [angstrom    30.000     0.000     0.000   |a| =    30.000000
 CELL_REF| Vector b [angstrom     0.000    30.000     0.000   |b| =    30.000000
 CELL_REF| Vector c [angstrom     0.000     0.000    30.000   |c| =    30.000000
 CELL_REF| Angle (b,c), alpha [degree]:                                90.000000
 CELL_REF| Angle (a,c), beta  [degree]:                                90.000000
 CELL_REF| Angle (a,b), gamma [degree]:                                90.000000
 CELL_REF| Numerically orthorhombic:                                         YES
 CELL_REF| Periodicity                                                      NONE

 *******************************************************************************
 *******************************************************************************
 **                                                                           **
 **     #####                         ##              ##                      **
 **    ##   ##            ##          ##              ##                      **
 **   ##     ##                       ##            ######                    **
 **   ##     ##  ##   ##  ##   #####  ##  ##   ####   ##    #####    #####    **
 **   ##     ##  ##   ##  ##  ##      ## ##   ##      ##   ##   ##  ##   ##   **
 **   ##  ## ##  ##   ##  ##  ##      ####     ###    ##   ######   ######    **
 **    ##  ###   ##   ##  ##  ##      ## ##      ##   ##   ##       ##        **
 **     #######   #####   ##   #####  ##  ##  ####    ##    #####   ##        **
 **           ##                                                    ##        **
 **                                                                           **
 **                                                ... make the atoms dance   **
 **                                                                           **
 **            Copyright (C) by CP2K developers group (2000-2025)             **
 **                      J. Chem. Phys. 152, 194103 (2020)                    **
 **                                                                           **
 *******************************************************************************

 DFT| Spin restricted Kohn-Sham (RKS) calculation                            RKS
 DFT| Multiplicity                                                             1
 DFT| Number of spin states                                                    1
 DFT| Charge                                                                   0
 DFT| Self-interaction correction (SIC)                                       NO
 DFT| Cutoffs: density                                              1.000000E-10
 DFT|          gradient                                             1.000000E-10
 DFT|          tau                                                  1.000000E-10
 DFT|          cutoff_smoothing_range                               0.000000E+00
 DFT| XC density smoothing                                                  NONE
 DFT| XC derivatives                                                          PW

 FUNCTIONAL| PBE:
 FUNCTIONAL| J.P.Perdew, K.Burke, M.Ernzerhof, Phys. Rev. Letter, vol. 77, n 18,
 FUNCTIONAL|  pp. 3865-3868, (1996)sx=0.750sc=1.000{spin unpolarized}           


 QS| Method:                                                                GAPW
 QS| Density plane wave grid type                        NON-SPHERICAL FULLSPACE
 QS| Number of grid levels:                                                    4
 QS| Density cutoff [a.u.]:                                                250.0
 QS| Multi grid cutoff [a.u.]: 1) grid level                               250.0
 QS|                           2) grid level                                83.3
 QS|                           3) grid level                                27.8
 QS|                           4) grid level                                 9.3
 QS| Grid level progression factor:                                          3.0
 QS| Relative density cutoff [a.u.]:                                        50.0
 QS| Interaction thresholds: eps_pgf_orb:                                1.0E-12
 QS|                         eps_filter_matrix:                          0.0E+00
 QS|                         eps_core_charge:                            1.0E-14
 QS|                         eps_rho_gspace:                             1.0E-12
 QS|                         eps_rho_rspace:                             1.0E-12
 QS|                         eps_gvg_rspace:                             1.0E-06
 QS|                         eps_ppl:                                    1.0E-02
 QS|                         eps_ppnl:                                   1.0E-08
 QS| GAPW|      One center basis from orbital basis primitives
 QS| GAPW|                   eps_fit:                                    1.0E-04
 QS| GAPW|                   eps_iso:                                    1.0E-12
 QS| GAPW|                   eps_svd:                                    1.0E-08
 QS| GAPW|                   eps_cpc:                                    1.0E-12
 QS| GAPW|   atom-r-grid: quadrature:                                     GC_LOG
 QS| GAPW|      atom-s-grid:  max l :                                          4
 QS| GAPW|      max_l_rho0 :                                                   2


 ATOMIC KIND INFORMATION

  1. Atomic kind: li                                    Number of atoms:       2

     Orbital Basis Set                                        aug-DZVP-MOLOPT-ae

       Number of orbital shell sets:                                           2
       Number of orbital shells:                                               8
       Number of primitive Cartesian functions:                               12
       Number of Cartesian basis functions:                                   19
       Number of spherical basis functions:                                   18
       Norm type:                                                              2

       Normalised Cartesian orbitals:

                        Set   Shell   Orbital            Exponent    Coefficient

                          1       1    1s              266.127173       0.337010
                                                        30.791085       0.645213
                                                         6.513909       0.731982
                                                         1.822796       0.505979
                                                         0.563425       0.128977
                                                         0.074745       0.017289
                                                         0.024840       0.003709

                          1       2    2s              266.127173       2.311979
                                                        30.791085      -4.206435
                                                         6.513909       2.484375
                                                         1.822796      -0.843164
                                                         0.563425      -0.005845
                                                         0.074745       0.170244
                                                         0.024840      -0.066060

                          1       3    3s              266.127173      -0.399777
                                                        30.791085       0.435493
                                                         6.513909      -0.539074
                                                         1.822796      -0.095833
                                                         0.563425      -0.093731
                                                         0.074745       0.056044
                                                         0.024840       0.024271

                          2       1    1s                0.029000       0.145227
                                                         0.048794      -0.168155
                                                         0.100000      -0.048428
                                                         0.223369       0.023674
                                                         1.213190       0.014068

                          2       2    2px               0.029000       0.000000
                                                         0.048794       0.017982
                                                         0.100000       0.000000
                                                         0.223369       0.120231
                                                         1.213190       0.214757
                          2       2    2py               0.029000       0.000000
                                                         0.048794       0.017982
                                                         0.100000       0.000000
                                                         0.223369       0.120231
                                                         1.213190       0.214757
                          2       2    2pz               0.029000       0.000000
                                                         0.048794       0.017982
                                                         0.100000       0.000000
                                                         0.223369       0.120231
                                                         1.213190       0.214757

                          2       3    3px               0.029000       0.000000
                                                         0.048794       0.029317
                                                         0.100000       0.000000
                                                         0.223369      -0.182080
                                                         1.213190      -0.558793
                          2       3    3py               0.029000       0.000000
                                                         0.048794       0.029317
                                                         0.100000       0.000000
                                                         0.223369      -0.182080
                                                         1.213190      -0.558793
                          2       3    3pz               0.029000       0.000000
                                                         0.048794       0.029317
                                                         0.100000       0.000000
                                                         0.223369      -0.182080
                                                         1.213190      -0.558793

                          2       4    4px               0.029000      -0.012291
                                                         0.048794      -0.011583
                                                         0.100000       0.000576
                                                         0.223369       0.038076
                                                         1.213190       0.156467
                          2       4    4py               0.029000      -0.012291
                                                         0.048794      -0.011583
                                                         0.100000       0.000576
                                                         0.223369       0.038076
                                                         1.213190       0.156467
                          2       4    4pz               0.029000      -0.012291
                                                         0.048794      -0.011583
                                                         0.100000       0.000576
                                                         0.223369       0.038076
                                                         1.213190       0.156467

                          2       5    3dx2              0.029000       0.000037
                                                         0.048794       0.005006
                                                         0.100000       0.006694
                                                         0.223369       0.036503
                                                         1.213190       0.046202
                          2       5    3dxy              0.029000       0.000064
                                                         0.048794       0.008671
                                                         0.100000       0.011594
                                                         0.223369       0.063226
                                                         1.213190       0.080024
                          2       5    3dxz              0.029000       0.000064
                                                         0.048794       0.008671
                                                         0.100000       0.011594
                                                         0.223369       0.063226
                                                         1.213190       0.080024
                          2       5    3dy2              0.029000       0.000037
                                                         0.048794       0.005006
                                                         0.100000       0.006694
                                                         0.223369       0.036503
                                                         1.213190       0.046202
                          2       5    3dyz              0.029000       0.000064
                                                         0.048794       0.008671
                                                         0.100000       0.011594
                                                         0.223369       0.063226
                                                         1.213190       0.080024
                          2       5    3dz2              0.029000       0.000037
                                                         0.048794       0.005006
                                                         0.100000       0.006694
                                                         0.223369       0.036503
                                                         1.213190       0.046202

     RI Auxiliary Basis Set             RI_aug-DZVP-MOLOPT-ae_N_RI_080_s_p_d_f_g

       Number of orbital shell sets:                                          18
       Number of orbital shells:                                              18
       Number of primitive Cartesian functions:                               18
       Number of Cartesian basis functions:                                  110
       Number of spherical basis functions:                                   80
       Norm type:                                                              2

       Normalised Cartesian orbitals:

                        Set   Shell   Orbital            Exponent    Coefficient

                          1       1   13fx3              0.114627       0.011255
                          1       1   13fx2y             0.114627       0.025167
                          1       1   13fx2z             0.114627       0.025167
                          1       1   13fxy2             0.114627       0.025167
                          1       1   13fxyz             0.114627       0.043591
                          1       1   13fxz2             0.114627       0.025167
                          1       1   13fy3              0.114627       0.011255
                          1       1   13fy2z             0.114627       0.025167
                          1       1   13fyz2             0.114627       0.025167
                          1       1   13fz3              0.114627       0.011255

                          2       1   10dx2              0.157260       0.064639
                          2       1   10dxy              0.157260       0.111958
                          2       1   10dxz              0.157260       0.111958
                          2       1   10dy2              0.157260       0.064639
                          2       1   10dyz              0.157260       0.111958
                          2       1   10dz2              0.157260       0.064639

                          3       1    1s                0.162193       0.182152

                          4       1   16gx4              0.162543       0.007527
                          4       1   16gx3y             0.162543       0.019913
                          4       1   16gx3z             0.162543       0.019913
                          4       1   16gx2y2            0.162543       0.025708
                          4       1   16gx2yz            0.162543       0.044528
                          4       1   16gx2z2            0.162543       0.025708
                          4       1   16gxy3             0.162543       0.019913
                          4       1   16gxy2z            0.162543       0.044528
                          4       1   16gxyz2            0.162543       0.044528
                          4       1   16gxz3             0.162543       0.019913
                          4       1   16gy4              0.162543       0.007527
                          4       1   16gy3z             0.162543       0.019913
                          4       1   16gy2z2            0.162543       0.025708
                          4       1   16gyz3             0.162543       0.019913
                          4       1   16gz4              0.162543       0.007527

                          5       1    6px               0.181211       0.168528
                          5       1    6py               0.181211       0.168528
                          5       1    6pz               0.181211       0.168528

                          6       1   17gx4              0.346558       0.060370
                          6       1   17gx3y             0.346558       0.159723
                          6       1   17gx3z             0.346558       0.159723
                          6       1   17gx2y2            0.346558       0.206201
                          6       1   17gx2yz            0.346558       0.357151
                          6       1   17gx2z2            0.346558       0.206201
                          6       1   17gxy3             0.346558       0.159723
                          6       1   17gxy2z            0.346558       0.357151
                          6       1   17gxyz2            0.346558       0.357151
                          6       1   17gxz3             0.346558       0.159723
                          6       1   17gy4              0.346558       0.060370
                          6       1   17gy3z             0.346558       0.159723
                          6       1   17gy2z2            0.346558       0.206201
                          6       1   17gyz3             0.346558       0.159723
                          6       1   17gz4              0.346558       0.060370

                          7       1   14fx3              0.378043       0.164977
                          7       1   14fx2y             0.378043       0.368900
                          7       1   14fx2z             0.378043       0.368900
                          7       1   14fxy2             0.378043       0.368900
                          7       1   14fxyz             0.378043       0.638953
                          7       1   14fxz2             0.378043       0.368900
                          7       1   14fy3              0.378043       0.164977
                          7       1   14fy2z             0.378043       0.368900
                          7       1   14fyz2             0.378043       0.368900
                          7       1   14fz3              0.378043       0.164977

                          8       1   11dx2              0.492654       0.476824
                          8       1   11dxy              0.492654       0.825883
                          8       1   11dxz              0.492654       0.825883
                          8       1   11dy2              0.492654       0.476824
                          8       1   11dyz              0.492654       0.825883
                          8       1   11dz2              0.492654       0.476824

                          9       1    7px               0.569185       0.704704
                          9       1    7py               0.569185       0.704704
                          9       1    7pz               0.569185       0.704704

                         10       1   18gx4              0.617979       0.296219
                         10       1   18gx3y             0.617979       0.783722
                         10       1   18gx3z             0.617979       0.783722
                         10       1   18gx2y2            0.617979       1.011781
                         10       1   18gx2yz            0.617979       1.752456
                         10       1   18gx2z2            0.617979       1.011781
                         10       1   18gxy3             0.617979       0.783722
                         10       1   18gxy2z            0.617979       1.752456
                         10       1   18gxyz2            0.617979       1.752456
                         10       1   18gxz3             0.617979       0.783722
                         10       1   18gy4              0.617979       0.296219
                         10       1   18gy3z             0.617979       0.783722
                         10       1   18gy2z2            0.617979       1.011781
                         10       1   18gyz3             0.617979       0.783722
                         10       1   18gz4              0.617979       0.296219

                         11       1    2s                0.655969       0.519484

                         12       1   15fx3              0.967398       1.366364
                         12       1   15fx2y             0.967398       3.055284
                         12       1   15fx2z             0.967398       3.055284
                         12       1   15fxy2             0.967398       3.055284
                         12       1   15fxyz             0.967398       5.291907
                         12       1   15fxz2             0.967398       3.055284
                         12       1   15fy3              0.967398       1.366364
                         12       1   15fy2z             0.967398       3.055284
                         12       1   15fyz2             0.967398       3.055284
                         12       1   15fz3              0.967398       1.366364

                         13       1    8px               1.429992       2.228985
                         13       1    8py               1.429992       2.228985
                         13       1    8pz               1.429992       2.228985

                         14       1   12dx2              2.258252       6.847169
                         14       1   12dxy              2.258252      11.859645
                         14       1   12dxz              2.258252      11.859645
                         14       1   12dy2              2.258252       6.847169
                         14       1   12dyz              2.258252      11.859645
                         14       1   12dz2              2.258252       6.847169

                         15       1    3s                2.894520       1.581585

                         16       1    9px               4.743793       9.979234
                         16       1    9py               4.743793       9.979234
                         16       1    9pz               4.743793       9.979234

                         17       1    4s               11.016211       4.309573

                         18       1    5s               33.192796       9.855825

       Atomic covalent radius [Angstrom]:                                  1.230

       Atomic van der Waals radius [Angstrom]:                             1.820

     The atoms of this atomic kind are PAW atoms (GAPW):
       Hard Gaussian function radius:                                      1.512
       Rho0 radius:                                                        1.512
       Maximum GTO radius used for PAW projector construction:            24.566

     GAPW Soft Basis Set                                 aug-DZVP-MOLOPT-ae_soft

       Number of orbital shell sets:                                           2
       Number of orbital shells:                                               8
       Number of primitive Cartesian functions:                                9
       Number of Cartesian basis functions:                                   19
       Number of spherical basis functions:                                   18
       Norm type:                                                              2

       Normalised Cartesian orbitals:

                        Set   Shell   Orbital            Exponent    Coefficient

                          1       1    1s                1.822796       0.505979
                                                         0.563425       0.128977
                                                         0.074745       0.017289
                                                         0.024840       0.003709

                          1       2    2s                1.822796      -0.843164
                                                         0.563425      -0.005845
                                                         0.074745       0.170244
                                                         0.024840      -0.066060

                          1       3    3s                1.822796      -0.095833
                                                         0.563425      -0.093731
                                                         0.074745       0.056044
                                                         0.024840       0.024271

                          2       1    1s                0.029000       0.145227
                                                         0.048794      -0.168155
                                                         0.100000      -0.048428
                                                         0.223369       0.023674
                                                         1.213190       0.014068

                          2       2    2px               0.029000       0.000000
                                                         0.048794       0.017982
                                                         0.100000       0.000000
                                                         0.223369       0.120231
                                                         1.213190       0.214757
                          2       2    2py               0.029000       0.000000
                                                         0.048794       0.017982
                                                         0.100000       0.000000
                                                         0.223369       0.120231
                                                         1.213190       0.214757
                          2       2    2pz               0.029000       0.000000
                                                         0.048794       0.017982
                                                         0.100000       0.000000
                                                         0.223369       0.120231
                                                         1.213190       0.214757

                          2       3    3px               0.029000       0.000000
                                                         0.048794       0.029317
                                                         0.100000       0.000000
                                                         0.223369      -0.182080
                                                         1.213190      -0.558793
                          2       3    3py               0.029000       0.000000
                                                         0.048794       0.029317
                                                         0.100000       0.000000
                                                         0.223369      -0.182080
                                                         1.213190      -0.558793
                          2       3    3pz               0.029000       0.000000
                                                         0.048794       0.029317
                                                         0.100000       0.000000
                                                         0.223369      -0.182080
                                                         1.213190      -0.558793

                          2       4    4px               0.029000      -0.012291
                                                         0.048794      -0.011583
                                                         0.100000       0.000576
                                                         0.223369       0.038076
                                                         1.213190       0.156467
                          2       4    4py               0.029000      -0.012291
                                                         0.048794      -0.011583
                                                         0.100000       0.000576
                                                         0.223369       0.038076
                                                         1.213190       0.156467
                          2       4    4pz               0.029000      -0.012291
                                                         0.048794      -0.011583
                                                         0.100000       0.000576
                                                         0.223369       0.038076
                                                         1.213190       0.156467

                          2       5    3dx2              0.029000       0.000037
                                                         0.048794       0.005006
                                                         0.100000       0.006694
                                                         0.223369       0.036503
                                                         1.213190       0.046202
                          2       5    3dxy              0.029000       0.000064
                                                         0.048794       0.008671
                                                         0.100000       0.011594
                                                         0.223369       0.063226
                                                         1.213190       0.080024
                          2       5    3dxz              0.029000       0.000064
                                                         0.048794       0.008671
                                                         0.100000       0.011594
                                                         0.223369       0.063226
                                                         1.213190       0.080024
                          2       5    3dy2              0.029000       0.000037
                                                         0.048794       0.005006
                                                         0.100000       0.006694
                                                         0.223369       0.036503
                                                         1.213190       0.046202
                          2       5    3dyz              0.029000       0.000064
                                                         0.048794       0.008671
                                                         0.100000       0.011594
                                                         0.223369       0.063226
                                                         1.213190       0.080024
                          2       5    3dz2              0.029000       0.000037
                                                         0.048794       0.005006
                                                         0.100000       0.006694
                                                         0.223369       0.036503
                                                         1.213190       0.046202

     AE Potential information for                                            ALL

       Description:                                       All-electron potential
                                          Krack, Parrinello, PCCP 2, 2105 (2000)

       Gaussian exponent of the core charge distribution:               3.125000
       Electronic configuration (s p d ...):                           3   0   0


 MOLECULE KIND INFORMATION


 All atoms are their own molecule, skipping detailed information


 TOTAL NUMBERS AND MAXIMUM NUMBERS

  Total number of            - Atomic kinds:                                   1
                             - Atoms:                                          2
                             - Shell sets:                                     4
                             - Shells:                                        16
                             - Primitive Cartesian functions:                 24
                             - Cartesian basis functions:                     38
                             - Spherical basis functions:                     36

  Maximum angular momentum of the orbital basis functions:                     2


 MODULE QUICKSTEP: ATOMIC COORDINATES IN ANGSTROM

   Atom Kind Element         X             Y             Z       Z(eff)     Mass
      1    1 li    3     15.000000     15.000000     16.394718   3.0000   6.9410
      2    1 li    3     15.000000     15.000000     13.605282   3.0000   6.9410



 SCF PARAMETERS         Density guess:                                    ATOMIC
                        --------------------------------------------------------
                        max_scf:                                             500
                        max_scf_history:                                       0
                        max_diis:                                              4
                        --------------------------------------------------------
                        eps_scf:                                        1.00E-06
                        eps_scf_history:                                0.00E+00
                        eps_diis:                                       1.00E-01
                        eps_eigval:                                     1.00E-05
                        --------------------------------------------------------
                        level_shift [a.u.]:                             0.000000
                        added MOs                                        33    0
                        --------------------------------------------------------
                        Mixing method:                            BROYDEN_MIXING
                                                charge density mixing in g-space
                        --------------------------------------------------------
                        Smear method:                                FERMI_DIRAC
                        Electronic temperature [K]:                        300.0
                        Electronic temperature [a.u.]:                  9.50E-04
                        Accuracy threshold:                             1.00E-10
                        --------------------------------------------------------
                        No outer SCF

 PW_GRID| Information for grid number                                          1
 PW_GRID| Grid distributed over                                    24 processors
 PW_GRID| Real space group dimensions                                    24    1
 PW_GRID| the grid is blocked:                                                NO
 PW_GRID| Cutoff [a.u.]                                                    250.0
 PW_GRID| spherical cutoff:                                                   NO
 PW_GRID|   Bounds   1           -202     202                Points:         405
 PW_GRID|   Bounds   2           -202     202                Points:         405
 PW_GRID|   Bounds   3           -202     202                Points:         405
 PW_GRID| Volume element (a.u.^3)  0.2743E-02     Volume (a.u.^3)    182205.0337
 PW_GRID| Grid span                                                    FULLSPACE
 PW_GRID|   Distribution                         Average         Max         Min
 PW_GRID|   G-Vectors                          2767921.9     2768175     2767770
 PW_GRID|   G-Rays                                6834.4        6835        6834
 PW_GRID|   Real Space Points                  2767921.9     2788425     2624400

 PW_GRID| Information for grid number                                          2
 PW_GRID| Number of the reference grid                                         1
 PW_GRID| Grid distributed over                                    24 processors
 PW_GRID| Real space group dimensions                                    24    1
 PW_GRID| the grid is blocked:                                                NO
 PW_GRID| Cutoff [a.u.]                                                     83.3
 PW_GRID| spherical cutoff:                                                   NO
 PW_GRID|   Bounds   1           -120     119                Points:         240
 PW_GRID|   Bounds   2           -120     119                Points:         240
 PW_GRID|   Bounds   3           -120     119                Points:         240
 PW_GRID| Volume element (a.u.^3)  0.1318E-01     Volume (a.u.^3)    182205.0337
 PW_GRID| Grid span                                                    FULLSPACE
 PW_GRID|   Distribution                         Average         Max         Min
 PW_GRID|   G-Vectors                           576000.0      576240      575760
 PW_GRID|   G-Rays                                2400.0        2401        2399
 PW_GRID|   Real Space Points                   576000.0      576000      576000

 PW_GRID| Information for grid number                                          3
 PW_GRID| Number of the reference grid                                         1
 PW_GRID| Grid distributed over                                    24 processors
 PW_GRID| Real space group dimensions                                    24    1
 PW_GRID| the grid is blocked:                                                NO
 PW_GRID| Cutoff [a.u.]                                                     27.8
 PW_GRID| spherical cutoff:                                                   NO
 PW_GRID|   Bounds   1            -67      67                Points:         135
 PW_GRID|   Bounds   2            -67      67                Points:         135
 PW_GRID|   Bounds   3            -67      67                Points:         135
 PW_GRID| Volume element (a.u.^3)  0.7406E-01     Volume (a.u.^3)    182205.0337
 PW_GRID| Grid span                                                    FULLSPACE
 PW_GRID|   Distribution                         Average         Max         Min
 PW_GRID|   G-Vectors                           102515.6      102735      102330
 PW_GRID|   G-Rays                                 759.4         761         758
 PW_GRID|   Real Space Points                   102515.6      109350       91125

 PW_GRID| Information for grid number                                          4
 PW_GRID| Number of the reference grid                                         1
 PW_GRID| Grid distributed over                                    24 processors
 PW_GRID| Real space group dimensions                                    24    1
 PW_GRID| the grid is blocked:                                                NO
 PW_GRID| Cutoff [a.u.]                                                      9.3
 PW_GRID| spherical cutoff:                                                   NO
 PW_GRID|   Bounds   1            -40      39                Points:          80
 PW_GRID|   Bounds   2            -40      39                Points:          80
 PW_GRID|   Bounds   3            -40      39                Points:          80
 PW_GRID| Volume element (a.u.^3)  0.3559         Volume (a.u.^3)    182205.0337
 PW_GRID| Grid span                                                    FULLSPACE
 PW_GRID|   Distribution                         Average         Max         Min
 PW_GRID|   G-Vectors                            21333.3       21360       21280
 PW_GRID|   G-Rays                                 266.7         267         266
 PW_GRID|   Real Space Points                    21333.3       25600       19200

 POISSON| Solver                                                         WAVELET
 POISSON| Wavelet| Scaling function                                           40
 POISSON| Periodicity                                                       NONE

 RS_GRID| Information for grid number                                          1
 RS_GRID|   Bounds   1           -202     202                Points:         405
 RS_GRID|   Bounds   2           -202     202                Points:         405
 RS_GRID|   Bounds   3           -202     202                Points:         405
 RS_GRID| Real space distribution over                                  4 groups
 RS_GRID| Real space distribution along direction                              2
 RS_GRID| Border size                                                         33
 RS_GRID| Real space distribution over                                  6 groups
 RS_GRID| Real space distribution along direction                              3
 RS_GRID| Border size                                                         33
 RS_GRID|   Distribution                         Average         Max         Min
 RS_GRID|   Planes                                 167.2         168         167
 RS_GRID|   Distribution                         Average         Max         Min
 RS_GRID|   Planes                                 133.5         134         133

 RS_GRID| Information for grid number                                          2
 RS_GRID|   Bounds   1           -120     119                Points:         240
 RS_GRID|   Bounds   2           -120     119                Points:         240
 RS_GRID|   Bounds   3           -120     119                Points:         240
 RS_GRID| Real space distribution over                                  4 groups
 RS_GRID| Real space distribution along direction                              2
 RS_GRID| Border size                                                         34
 RS_GRID| Real space distribution over                                  6 groups
 RS_GRID| Real space distribution along direction                              3
 RS_GRID| Border size                                                         34
 RS_GRID|   Distribution                         Average         Max         Min
 RS_GRID|   Planes                                 128.0         128         128
 RS_GRID|   Distribution                         Average         Max         Min
 RS_GRID|   Planes                                 108.0         108         108

 RS_GRID| Information for grid number                                          3
 RS_GRID|   Bounds   1            -67      67                Points:         135
 RS_GRID|   Bounds   2            -67      67                Points:         135
 RS_GRID|   Bounds   3            -67      67                Points:         135
 RS_GRID| Real space fully replicated
 RS_GRID| Group size                                                           1

 RS_GRID| Information for grid number                                          4
 RS_GRID|   Bounds   1            -40      39                Points:          80
 RS_GRID|   Bounds   2            -40      39                Points:          80
 RS_GRID|   Bounds   3            -40      39                Points:          80
 RS_GRID| Real space fully replicated
 RS_GRID| Group size                                                           1

  HFX_INFO| Replica ID:                                                        1
  HFX_INFO| FRACTION:                                               0.2500000000
  HFX_INFO| Interaction Potential:                                       COULOMB
  HFX_INFO| EPS_SCHWARZ:                                                 1.0E-10
  HFX_INFO| EPS_SCHWARZ_FORCES                                           1.0E-08
  HFX_INFO| EPS_STORAGE_SCALING:                                         1.0E+00
  HFX_INFO| NBINS:                                                            64
  HFX_INFO| BLOCK_SIZE:                                                        1
  HFX_INFO| Number of periodic shells considered:                           NONE
  HFX_INFO| Number of periodic cells considered:                            NONE

 
 RI-RPA| using GPW style
 

 OVERLAP MATRIX CONDITION NUMBER
 1-Norm Condition Number (Estimate)
   CN : |A|*|A^-1|:  4.382E+000 *  7.906E+002   = 3.464E+003  Log(1-CN):  3.5396
 1-Norm and 2-Norm Condition Numbers using Diagonalization
   CN : |A|*|A^-1|:  4.382E+000 *  7.906E+002   = 3.464E+003  Log(1-CN):  3.5396
   CN : max/min ev:  3.114E+000 /  1.895E-003   = 1.643E+003  Log(2-CN):  3.2157

 Number of electrons:                                                          6
 Number of occupied orbitals:                                                  3
 Number of molecular orbitals:                                                36

 Number of orbital functions:                                                 36
 Number of independent orbital functions:                                     36

 Extrapolation method: initial_guess

 Atomic guess: The first density matrix is obtained in terms of atomic orbitals
               and electronic configurations assigned to each atomic kind

 Guess for atomic kind: li

 Electronic structure
    Total number of core electrons                                          0.00
    Total number of valence electrons                                       3.00
    Total number of electrons                                               3.00
    Multiplicity                                                   not specified
    S      2.00  1.00


 *******************************************************************************
                  Iteration          Convergence                     Energy [au]
 *******************************************************************************
                          1        0.217764E-01                  -7.325479042754
                          2        0.904081E-03                  -7.325601896959
                          3        0.820609E-05                  -7.325601958339
                          4        0.914042E-06                  -7.325601958441

 Energy components [Hartree]           Total Energy ::           -7.325601958441
                                        Band Energy ::           -3.837348964992
                                     Kinetic Energy ::            7.342098450317
                                   Potential Energy ::          -14.667700408758
                                      Virial (-V/T) ::            1.997753163896
                                        Core Energy ::           -9.674505350313
                                          XC Energy ::           -1.661039296539
                                     Coulomb Energy ::            4.009942688412

 Orbital energies  State     L     Occupation   Energy[a.u.]          Energy[eV]

                       1     0          2.000      -1.867231          -50.809952
                       2     0          1.000      -0.102886           -2.799672


 Total Electron Density at R=0:                                        12.637024
 Re-scaling the density matrix to get the right number of electrons
                  # Electrons              Trace(P)               Scaling factor
                            6                 6.000                        1.000


 SCF WAVEFUNCTION OPTIMIZATION

  Step     Update method      Time    Convergence         Total energy    Change
  ------------------------------------------------------------------------------

  HFX_MEM_INFO| Est. max. program size before HFX [MiB]:                    2135
  HFX_MEM_INFO| Number of cart. primitive ERI's calculated:             62779430
  HFX_MEM_INFO| Number of sph. ERI's calculated:                          629856
  HFX_MEM_INFO| Number of sph. ERI's stored in-core:                      629856
  HFX_MEM_INFO| Number of sph. ERI's stored on disk:                           0
  HFX_MEM_INFO| Number of sph. ERI's calculated on the fly:                    0
  HFX_MEM_INFO| Total memory consumption ERI's RAM [MiB]:                      4
  HFX_MEM_INFO| Whereof max-vals [MiB]:                                        1
  HFX_MEM_INFO| Total compression factor ERI's RAM:                         1.53
  HFX_MEM_INFO| Total memory consumption ERI's disk [MiB]:                     0
  HFX_MEM_INFO| Total compression factor ERI's disk:                        0.00
  HFX_MEM_INFO| Size of density/Fock matrix [MiB]:                             0
  HFX_MEM_INFO| Size of buffers [MiB]:                                         1
  HFX_MEM_INFO| Est. max. program size after HFX  [MiB]:                    2645

     1 NoMix/Diag. 0.10E+00    7.2     0.49779399       -14.9149252127 -1.49E+01
     2 Broy./Diag. 0.10E+00    4.7     0.05843850       -14.9063720611  8.55E-03
     3 Broy./Diag. 0.10E+00    4.9     0.02989183       -14.8815151481  2.49E-02
     4 Broy./Diag. 0.10E+00    4.9     0.01269402       -14.8689218142  1.26E-02
     5 Broy./Diag. 0.10E+00    5.0     0.00168198       -14.8642796376  4.64E-03
     6 Broy./Diag. 0.10E+00    5.0     0.00078810       -14.8642225586  5.71E-05
     7 Broy./Diag. 0.10E+00    4.9     0.00288293       -14.8569827167  7.24E-03
     8 Broy./Diag. 0.10E+00    5.2     0.00240082       -14.8478707479  9.11E-03
     9 Broy./Diag. 0.10E+00    5.5     0.00149713       -14.8456365154  2.23E-03
    10 Broy./Diag. 0.10E+00    5.7     0.00973364       -14.8395901735  6.05E-03
    11 Broy./Diag. 0.10E+00    5.5     0.00663412       -14.8364932578  3.10E-03
    12 Broy./Diag. 0.10E+00    5.5     0.00885889       -14.8422825882 -5.79E-03
    13 Broy./Diag. 0.10E+00    5.4     0.05644338       -14.8892315612 -4.69E-02
    14 Broy./Diag. 0.10E+00    5.4     0.03275495       -14.9306004608 -4.14E-02
    15 Broy./Diag. 0.10E+00    5.3     0.00684875       -14.9388774156 -8.28E-03
    16 Broy./Diag. 0.10E+00    5.4     0.00746565       -14.9323274885  6.55E-03
    17 Broy./Diag. 0.10E+00    5.4     0.00187650       -14.9317736242  5.54E-04
    18 Broy./Diag. 0.10E+00    5.3     0.00328644       -14.9355155926 -3.74E-03
    19 Broy./Diag. 0.10E+00    5.3     0.00147480       -14.9371356879 -1.62E-03
    20 Broy./Diag. 0.10E+00    5.4     0.00144548       -14.9374585541 -3.23E-04
    21 Broy./Diag. 0.10E+00    5.3     0.00386055       -14.9329111933  4.55E-03
    22 Broy./Diag. 0.10E+00    5.4     0.00179621       -14.9309105161  2.00E-03
    23 Broy./Diag. 0.10E+00    5.5     0.00048250       -14.9314448588 -5.34E-04
    24 Broy./Diag. 0.10E+00    5.6     0.00261983       -14.9325040187 -1.06E-03
    25 Broy./Diag. 0.10E+00    5.6     0.00081791       -14.9333008654 -7.97E-04
    26 Broy./Diag. 0.10E+00    5.6     0.00062650       -14.9332008680  1.00E-04
    27 Broy./Diag. 0.10E+00    5.5     0.00691963       -14.9368737742 -3.67E-03
    28 Broy./Diag. 0.10E+00    5.5     0.00876477       -14.9438660300 -6.99E-03
    29 Broy./Diag. 0.10E+00    5.4     0.00453641       -14.9481614304 -4.30E-03
    30 Broy./Diag. 0.10E+00    5.4     0.00176550       -14.9502437541 -2.08E-03
    31 Broy./Diag. 0.10E+00    5.3     0.00952519       -14.9548939816 -4.65E-03
    32 Broy./Diag. 0.10E+00    5.4     0.00640982       -14.9567316464 -1.84E-03
    33 Broy./Diag. 0.10E+00    5.3     0.00195266       -14.9550546181  1.68E-03
    34 Broy./Diag. 0.10E+00    5.4     0.00301714       -14.9524802311  2.57E-03
    35 Broy./Diag. 0.10E+00    5.3     0.00046871       -14.9513815961  1.10E-03
    36 Broy./Diag. 0.10E+00    5.4     0.00273016       -14.9518964254 -5.15E-04
    37 Broy./Diag. 0.10E+00    5.4     0.00025065       -14.9523655263 -4.69E-04
    38 Broy./Diag. 0.10E+00    5.5     0.00222116       -14.9512942285  1.07E-03
    39 Broy./Diag. 0.10E+00    5.5     0.00049918       -14.9509988260  2.95E-04
    40 Broy./Diag. 0.10E+00    5.5     0.00120754       -14.9516241973 -6.25E-04
    41 Broy./Diag. 0.10E+00    5.6     0.00017141       -14.9518208746 -1.97E-04
    42 Broy./Diag. 0.10E+00    5.7     0.00037686       -14.9511386995  6.82E-04
    43 Broy./Diag. 0.10E+00    5.5     0.00157384       -14.9516765562 -5.38E-04
    44 Broy./Diag. 0.10E+00    5.4     0.00026999       -14.9521213727 -4.45E-04
    45 Broy./Diag. 0.10E+00    5.4     0.00064115       -14.9521675087 -4.61E-05
    46 Broy./Diag. 0.10E+00    5.4     0.00079968       -14.9524661557 -2.99E-04
    47 Broy./Diag. 0.10E+00    5.4     0.00029290       -14.9527558852 -2.90E-04
    48 Broy./Diag. 0.10E+00    5.4     0.00028709       -14.9525898433  1.66E-04
    49 Broy./Diag. 0.10E+00    5.4     0.00022231       -14.9525185742  7.13E-05
    50 Broy./Diag. 0.10E+00    5.3     0.00005080       -14.9525374014 -1.88E-05
    51 Broy./Diag. 0.10E+00    5.3     0.00010782       -14.9524955176  4.19E-05
    52 Broy./Diag. 0.10E+00    5.3     0.00003670       -14.9524645841  3.09E-05
    53 Broy./Diag. 0.10E+00    5.3     0.00001826       -14.9524732569 -8.67E-06
    54 Broy./Diag. 0.10E+00    5.4     0.00019477       -14.9524052055  6.81E-05
    55 Broy./Diag. 0.10E+00    5.5     0.00001807       -14.9523701790  3.50E-05
    56 Broy./Diag. 0.10E+00    5.7     0.00022521       -14.9524116847 -4.15E-05
    57 Broy./Diag. 0.10E+00    5.7     0.00003931       -14.9524010608  1.06E-05
    58 Broy./Diag. 0.10E+00    5.5     0.00001661       -14.9523739949  2.71E-05
    59 Broy./Diag. 0.10E+00    5.6     0.00001308       -14.9523786877 -4.69E-06
    60 Broy./Diag. 0.10E+00    5.4     0.00005479       -14.9523568993  2.18E-05
    61 Broy./Diag. 0.10E+00    5.4     0.00003317       -14.9523130360  4.39E-05
    62 Broy./Diag. 0.10E+00    5.5     0.00001144       -14.9522837872  2.92E-05
    63 Broy./Diag. 0.10E+00    5.4     0.00000796       -14.9522693636  1.44E-05
    64 Broy./Diag. 0.10E+00    5.4     0.00001638       -14.9522553518  1.40E-05
    65 Broy./Diag. 0.10E+00    5.4     0.00001001       -14.9522478169  7.53E-06
    66 Broy./Diag. 0.10E+00    5.3     0.00000715       -14.9522446447  3.17E-06
    67 Broy./Diag. 0.10E+00    5.3     0.00000827       -14.9522478626 -3.22E-06
    68 Broy./Diag. 0.10E+00    5.3     0.00000548       -14.9522502178 -2.36E-06
    69 Broy./Diag. 0.10E+00    5.4     0.00001190       -14.9522482090  2.01E-06
    70 Broy./Diag. 0.10E+00    5.5     0.00000476       -14.9522494981 -1.29E-06
    71 Broy./Diag. 0.10E+00    5.5     0.00000377       -14.9522517540 -2.26E-06
    72 Broy./Diag. 0.10E+00    5.5     0.00000300       -14.9522502640  1.49E-06
    73 Broy./Diag. 0.10E+00    5.5     0.00000109       -14.9522492568  1.01E-06
    74 Broy./Diag. 0.10E+00    5.6     0.00000379       -14.9522516416 -2.38E-06
    75 Broy./Diag. 0.10E+00    5.5     0.00000171       -14.9522528295 -1.19E-06
    76 Broy./Diag. 0.10E+00    5.5     0.00000420       -14.9522518154  1.01E-06
    77 Broy./Diag. 0.10E+00    5.4     0.00000335       -14.9522526124 -7.97E-07
    78 Broy./Diag. 0.10E+00    5.4     0.00000249       -14.9522537851 -1.17E-06
    79 Broy./Diag. 0.10E+00    5.4     0.00000094       -14.9522528226  9.62E-07

  *** SCF run converged in    79 steps ***


  Electronic density on regular grids:         -4.3723926217        1.6276073783
  Core density on regular grids:                6.0000000000        0.0000000000
  Hard and soft densities (Lebedev):           -6.3464323412       -4.7188262906
  Total Rho_soft + Rho1_hard - Rho1_soft       -5.9999986722
  Total charge density (r-space):               0.0000013278
  Total Rho_soft + Rho0_soft (g-space):         0.0000012846

  Overlap energy of the core charge distribution:               0.00000000000000
  Self energy of the core charge distribution:                -12.69426562982452
  Core Hamiltonian energy:                                      0.45022783233692
  Hartree energy:                                               3.17250673516769
  Exchange-correlation energy:                                 -1.20518882459686
  Hartree-Fock Exchange energy:                                -0.88429547625057

  GAPW| Exc from hard and soft atomic rho1:                    -1.54311316094315
  GAPW| local Eh = 1 center integrals:                         -2.24812429851023
  Electronic entropic energy:                                  -0.00000000000000
  Fermi energy:                                                -0.08328170248411

  Total energy:                                               -14.95225282262071

 !-----------------------------------------------------------------------------!
                     Mulliken Population Analysis

 #  Atom  Element  Kind  Atomic population                           Net charge
       1     li       1          3.000000                             -0.000000
       2     li       1          3.000000                              0.000000
 # Total charge                              6.000000                 -0.000000

 !-----------------------------------------------------------------------------!

 !-----------------------------------------------------------------------------!
                           Hirshfeld Charges

  #Atom  Element  Kind  Ref Charge     Population                    Net charge
      1       li     1       3.000          2.993                         0.007
      2       li     1       3.000          2.993                         0.007

  Total Charge                                                            0.014
 !-----------------------------------------------------------------------------!


 RI-RPA section
 --------------

  Used number of processes per group:                                          1
  Maximum allowed memory usage per MPI process:                      1024.00 MiB
  RI_INFO| Cholesky decomposition group size:                                  2
  RI_INFO| Number of groups for auxiliary basis functions                     24

  RI_INFO| RI metric:                                                    COULOMB
  RI_INFO| Number of auxiliary basis functions:                              160
  GENERAL_INFO| Number of basis functions:                                    36
  GENERAL_INFO| Number of occupied orbitals:                                   3
  GENERAL_INFO| Number of virtual orbitals:                                   33
  RI_INFO| Total memory for (ia|K) integrals:                           0.12 MiB
  RI_INFO| Total memory for G0W0-(nm|K) integrals:                      1.58 MiB
  RI_INFO| Total memory for (ij|K) integrals:                           0.01 MiB
  RI_INFO| Total memory for (ab|K) integrals:                           1.33 MiB
  RI_INFO| Group size for frequency integration:                              24
  INTEG_INFO| Clenshaw-Curtius quadrature
  INTEG_INFO| Number of integration points:                                  100
  INTEG_INFO| Number of integration points per RPA group:                    100
  MATRIX_INFO| Number row processes:                                           6
  MATRIX_INFO| Number column processes:                                        4
  MATRIX_INFO| Row block size:                                                13
  MATRIX_INFO| Column block size:                                             12
  INTEG_INFO| Scaling parameter:                                         0.20000
  INTEG_INFO| Started with Integration point   1 of 100
  INTEG_INFO| Started with Integration point   2 of 100
  INTEG_INFO| Started with Integration point   3 of 100
  INTEG_INFO| Started with Integration point   4 of 100
  INTEG_INFO| Started with Integration point   5 of 100
  INTEG_INFO| Started with Integration point   6 of 100
  INTEG_INFO| Started with Integration point   7 of 100
  INTEG_INFO| Started with Integration point   8 of 100
  INTEG_INFO| Started with Integration point   9 of 100
  INTEG_INFO| Started with Integration point  10 of 100
  INTEG_INFO| Started with Integration point  11 of 100
  INTEG_INFO| Started with Integration point  12 of 100
  INTEG_INFO| Started with Integration point  13 of 100
  INTEG_INFO| Started with Integration point  14 of 100
  INTEG_INFO| Started with Integration point  15 of 100
  INTEG_INFO| Started with Integration point  16 of 100
  INTEG_INFO| Started with Integration point  17 of 100
  INTEG_INFO| Started with Integration point  18 of 100
  INTEG_INFO| Started with Integration point  19 of 100
  INTEG_INFO| Started with Integration point  20 of 100
  INTEG_INFO| Started with Integration point  21 of 100
  INTEG_INFO| Started with Integration point  22 of 100
  INTEG_INFO| Started with Integration point  23 of 100
  INTEG_INFO| Started with Integration point  24 of 100
  INTEG_INFO| Started with Integration point  25 of 100
  INTEG_INFO| Started with Integration point  26 of 100
  INTEG_INFO| Started with Integration point  27 of 100
  INTEG_INFO| Started with Integration point  28 of 100
  INTEG_INFO| Started with Integration point  29 of 100
  INTEG_INFO| Started with Integration point  30 of 100
  INTEG_INFO| Started with Integration point  31 of 100
  INTEG_INFO| Started with Integration point  32 of 100
  INTEG_INFO| Started with Integration point  33 of 100
  INTEG_INFO| Started with Integration point  34 of 100
  INTEG_INFO| Started with Integration point  35 of 100
  INTEG_INFO| Started with Integration point  36 of 100
  INTEG_INFO| Started with Integration point  37 of 100
  INTEG_INFO| Started with Integration point  38 of 100
  INTEG_INFO| Started with Integration point  39 of 100
  INTEG_INFO| Started with Integration point  40 of 100
  INTEG_INFO| Started with Integration point  41 of 100
  INTEG_INFO| Started with Integration point  42 of 100
  INTEG_INFO| Started with Integration point  43 of 100
  INTEG_INFO| Started with Integration point  44 of 100
  INTEG_INFO| Started with Integration point  45 of 100
  INTEG_INFO| Started with Integration point  46 of 100
  INTEG_INFO| Started with Integration point  47 of 100
  INTEG_INFO| Started with Integration point  48 of 100
  INTEG_INFO| Started with Integration point  49 of 100
  INTEG_INFO| Started with Integration point  50 of 100
  INTEG_INFO| Started with Integration point  51 of 100
  INTEG_INFO| Started with Integration point  52 of 100
  INTEG_INFO| Started with Integration point  53 of 100
  INTEG_INFO| Started with Integration point  54 of 100
  INTEG_INFO| Started with Integration point  55 of 100
  INTEG_INFO| Started with Integration point  56 of 100
  INTEG_INFO| Started with Integration point  57 of 100
  INTEG_INFO| Started with Integration point  58 of 100
  INTEG_INFO| Started with Integration point  59 of 100
  INTEG_INFO| Started with Integration point  60 of 100
  INTEG_INFO| Started with Integration point  61 of 100
  INTEG_INFO| Started with Integration point  62 of 100
  INTEG_INFO| Started with Integration point  63 of 100
  INTEG_INFO| Started with Integration point  64 of 100
  INTEG_INFO| Started with Integration point  65 of 100
  INTEG_INFO| Started with Integration point  66 of 100
  INTEG_INFO| Started with Integration point  67 of 100
  INTEG_INFO| Started with Integration point  68 of 100
  INTEG_INFO| Started with Integration point  69 of 100
  INTEG_INFO| Started with Integration point  70 of 100
  INTEG_INFO| Started with Integration point  71 of 100
  INTEG_INFO| Started with Integration point  72 of 100
  INTEG_INFO| Started with Integration point  73 of 100
  INTEG_INFO| Started with Integration point  74 of 100
  INTEG_INFO| Started with Integration point  75 of 100
  INTEG_INFO| Started with Integration point  76 of 100
  INTEG_INFO| Started with Integration point  77 of 100
  INTEG_INFO| Started with Integration point  78 of 100
  INTEG_INFO| Started with Integration point  79 of 100
  INTEG_INFO| Started with Integration point  80 of 100
  INTEG_INFO| Started with Integration point  81 of 100
  INTEG_INFO| Started with Integration point  82 of 100
  INTEG_INFO| Started with Integration point  83 of 100
  INTEG_INFO| Started with Integration point  84 of 100
  INTEG_INFO| Started with Integration point  85 of 100
  INTEG_INFO| Started with Integration point  86 of 100
  INTEG_INFO| Started with Integration point  87 of 100
  INTEG_INFO| Started with Integration point  88 of 100
  INTEG_INFO| Started with Integration point  89 of 100
  INTEG_INFO| Started with Integration point  90 of 100
  INTEG_INFO| Started with Integration point  91 of 100
  INTEG_INFO| Started with Integration point  92 of 100
  INTEG_INFO| Started with Integration point  93 of 100
  INTEG_INFO| Started with Integration point  94 of 100
  INTEG_INFO| Started with Integration point  95 of 100
  INTEG_INFO| Started with Integration point  96 of 100
  INTEG_INFO| Started with Integration point  97 of 100
  INTEG_INFO| Started with Integration point  98 of 100
  INTEG_INFO| Started with Integration point  99 of 100
  INTEG_INFO| Started with Integration point 100 of 100
  PERFORMANCE| Average DGEMM flop rate (Gflops / MPI rank):                 0.21
  
  
  ******************************************************************************
  **                                                                          **
  **                        GW QUASIPARTICLE ENERGIES                         **
  **                                                                          **
  ******************************************************************************
   
   
  The GW quasiparticle energies are calculated according to: 
   
                      E_GW = E_SCF + Sigc(E_GW) + Sigx - vxc 
   
  Upper equation is solved self-consistently for E_GW, see Eq. (12) in J. Phys.
  Chem. Lett. 9, 306 (2018), doi: 10.1021/acs.jpclett.7b02740
  
  
  ------------
  G0W0 results
  ------------
   
  Molecular orbital   E_SCF (eV)       Sigc (eV)   Sigx-vxc (eV)       E_GW (eV)
     1 ( occ )          -58.5763          4.4409         -9.3366        -63.4720
     2 ( occ )          -58.4916          4.7104         -9.4692        -63.2504
     3 ( occ )           -8.3658         -0.0930         -1.4073         -9.8661
     4 ( vir )           -2.5020         -0.5247          2.2918         -0.7349
     5 ( vir )           -1.7756         -0.5387          2.2334         -0.0809
     6 ( vir )           -1.7756         -0.5387          2.2334         -0.0809
     7 ( vir )           -0.3530         -0.8006          2.6090          1.4554
     8 ( vir )            0.0402         -0.3078          3.3940          3.1264
     9 ( vir )            0.0529         -0.1318          1.4374          1.3585
    10 ( vir )            0.0529         -0.1318          1.4374          1.3585
    11 ( vir )            0.0956         -0.2244          1.5479          1.4191
    12 ( vir )            0.1521         -0.2063          1.6215          1.5674
    13 ( vir )            0.1521         -0.2063          1.6215          1.5674
    14 ( vir )            0.2460         -0.6291          5.5470          5.1639
    15 ( vir )            0.6429         -0.8379          2.6127          2.4177
    16 ( vir )            0.6429         -0.8379          2.6127          2.4177
    17 ( vir )            1.1009         -2.2815          7.5253          6.3447
    18 ( vir )            1.2136         -1.7351          6.8144          6.2928
    19 ( vir )            2.6730         -1.2096          2.7186          4.1820
    20 ( vir )            2.6730         -1.2096          2.7186          4.1821
    21 ( vir )            3.9513         -1.4183          2.7966          5.3296
    22 ( vir )            4.1426         -0.9173          2.5467          5.7719
    23 ( vir )            4.1426         -0.9173          2.5467          5.7720
    24 ( vir )            4.3782         -1.5109          3.8686          6.7359
    25 ( vir )            5.0976         -2.0637          2.4164          5.4504
    26 ( vir )            5.0976         -2.0725          2.4164          5.4415
    27 ( vir )            5.3394         -1.5585          2.5595          6.3405
    28 ( vir )            5.3394         -1.5585          2.5595          6.3404
    29 ( vir )           11.0381         -0.8509          4.0875         14.2748
    30 ( vir )           11.8257         -0.9605          4.2890         15.1541
    31 ( vir )           11.8257         -0.9550          4.2890         15.1597
    32 ( vir )           12.4733         -0.9085          4.4798         16.0447
    33 ( vir )           12.7484         -0.7612          4.0676         16.0547
    34 ( vir )           12.7484         -0.7615          4.0676         16.0544
    35 ( vir )          149.9041          1.0987         14.5271        165.5299
    36 ( vir )          150.5623          1.0553         13.3423        164.9598
   
  G0W0 HOMO-LUMO gap (eV)                                                 9.1312
  
  ------------------------------------------------------------------------------
  
 *******************************************************************************
 **                                                                           **
 **           Bethe Salpeter equation (BSE) for excitation energies           **
[...]
 total gridlevel count  :         209595

 -------------------------------------------------------------------------------
 -                                                                             -
 -                         MESSAGE PASSING PERFORMANCE                         -
 -                                                                             -
 -------------------------------------------------------------------------------

 ROUTINE             CALLS      AVE VOLUME [Bytes]
 MP_Group              223
 MP_Bcast              761                 262383.
 MP_Allreduce         6215                   3367.
 MP_Sync               845
 MP_Alltoall          2203              110118634.
 MP_SendRecv          3729                 532740.
 MP_ISendRecv         7406                 272113.
 MP_Wait             22436
 MP_comm_split         133
 MP_ISend            13987                1973456.
 MP_IRecv            13960                1977273.
 -------------------------------------------------------------------------------


 -------------------------------------------------------------------------------
 -                                                                             -
 -                           R E F E R E N C E S                               -
 -                                                                             -
 -------------------------------------------------------------------------------
 
 CP2K version 2025.1 (Development Version), the CP2K developers group (2025).
 CP2K is freely available from https://www.cp2k.org/ .
 
 T. D. Kuehne, M. Iannuzzi, M. Del Ben, V. V. Rybkin, P. Seewald, F. Stein, T. 
 Laino, R. Z. Khaliullin, O. Schuett, F. Schiffmann, D. Golze, J. Wilhelm, S. 
 Chulkov, M. H. Bani-Hashemian, V. Weber, U. Borstnik, M. Taillefumier, A. S. 
 Jakobovits, A. Lazzaro, H. Pabst, T. Mueller, R. Schade, M. Guidon, S. 
 Andermatt, N. Holmberg, G. K. Schenter, A. Hehn, A. Bussy, F. Belleflamme, G. 
 Tabacchi, A. Gloess, M. Lass, I. Bethune, C. J. Mundy, C. Plessl, M. Watkins, 
 J. VandeVondele, M. Krack, J. Hutter.
 J. Chem. Phys. 152, 194103 (2020).
 CP2K: An electronic structure and molecular dynamics software package - 
 Quickstep: Efficient and accurate electronic structure calculations.
 https://doi.org/10.1063/5.0007045

 J. Wilhelm, D. Golze, L. Talirz, J. Hutter, C. A. Pignedoli.
 J. Phys. Chem. Lett. 9, 306-312 (2018).
 Toward GW calculations on thousands of atoms.
 https://doi.org/10.1021/acs.jpclett.7b02740

 J. Wilhelm, J. Hutter.
 Phys. Rev. B 95, 235123 (2017).
 Periodic GW calculations in the Gaussian and plane-waves scheme.
 https://doi.org/10.1103/PhysRevB.95.235123

 O. Schuett, P. Messmer, J. Hutter, J. VandeVondele.
 Electronic Structure Calculations on Graphics Processing Units, 173-190 (2016).
 GPU-Accelerated Sparse Matrix-Matrix Multiplication for Linear Scaling Density 
 Functional Theory.
 https://doi.org/10.1002/9781118670712.ch8

 J. Wilhelm, M. Del Ben, J. Hutter.
 J. Chem. Theory Comput. 12, 3623-3635 (2016).
 GW in the Gaussian and plane waves scheme with application to linear acenes.
 https://doi.org/10.1021/acs.jctc.6b00380

 M. Del Ben, O. Schuett, T. Wentz, P. Messmer, J. Hutter, J. VandeVondele.
 Comput. Phys. Commun. 187, 120-129 (2015).
 Enabling simulation at the fifth rung of DFT: Large scale RPA calculations with 
 excellent time to solution.
 https://doi.org/10.1016/j.cpc.2014.10.021

 J. Hutter, M. Iannuzzi, F. Schiffmann, J. VandeVondele.
 WIREs Comput Mol Sci. 4, 15-25 (2014).
 CP2K: atomistic simulations of condensed matter systems.
 https://doi.org/10.1002/wcms.1159

 U. Borstnik, J. VandeVondele, V. Weber, J. Hutter.
 Parallel Comput. 40, 47-58 (2014).
 Sparse matrix multiplication: The distributed block-compressed sparse row 
 library.
 https://doi.org/10.1016/j.parco.2014.03.012

 M. Del Ben, J. Hutter, J. VandeVondele.
 J. Chem. Theory Comput. 9, 2654-2671 (2013).
 Electron Correlation in the Condensed Phase from a Resolution of Identity 
 Approach Based on the Gaussian and Plane Waves Scheme.
 https://doi.org/10.1021/ct4002202

 M. Del Ben, J. Hutter, J. VandeVondele.
 J. Chem. Theory Comput. 8, 4177-4188 (2012).
 Second-Order Moller-Plesset Perturbation Theory in the Condensed Phase: An 
 Efficient and Massively Parallel Gaussian and Plane Waves Approach.
 https://doi.org/10.1021/ct300531w

 M. Guidon, J. Hutter, J. VandeVondele.
 J. Chem. Theory Comput. 5, 3010-3021 (2009).
 Robust Periodic Hartree-Fock Exchange for Large-Scale Simulations Using 
 Gaussian Basis Sets.
 https://doi.org/10.1021/ct900494g

 M. Guidon, F. Schiffmann, J. Hutter, J. VandeVondele.
 J. Chem. Phys. 128, 214104 (2008).
 Ab initio molecular dynamics using hybrid density functionals.
 https://doi.org/10.1063/1.2931945

 L. Genovese, T. Deutsch, S. Goedecker.
 J. Chem. Phys. 127, 054704 (2007).
 Efficient and accurate three-dimensional Poisson solver for surface problems.
 https://doi.org/10.1063/1.2754685

 J. VandeVondele, J. Hutter.
 J. Chem. Phys. 127, 114105 (2007).
 Gaussian basis sets for accurate calculations on molecular systems in gas and 
 condensed phases.
 https://doi.org/10.1063/1.2770708

 L. Genovese, T. Deutsch, A. Neelov, S. Goedecker, G. Beylkin.
 J. Chem. Phys. 125, 074105 (2006).
 Efficient solution of Poisson's equation with free boundary conditions.
 https://doi.org/10.1063/1.2335442

 M. Frigo, S. G. Johnson.
 Proc. IEEE 93, 216-231 (2005).
 The design and implementation of FFTW3.
 https://doi.org/10.1109/JPROC.2004.840301

 M. Krack, M. Parrinello.
 Phys. Chem. Chem. Phys. 2, 2105-2112 (2000).
 All-electron ab-initio molecular dynamics.
 https://doi.org/10.1039/b001167n

 G. Lippert, J. Hutter, M. Parrinello.
 Theor. Chem. Acc. 103, 124-140 (1999).
 The Gaussian and augmented-plane-wave density functional method for ab initio 
 molecular dynamics simulations.
 https://doi.org/10.1007/s002140050523

 J. P. Perdew, K. Burke, M. Ernzerhof.
 Phys. Rev. Lett. 77, 3865-3868 (1996).
 Generalized gradient approximation made simple.
 https://doi.org/10.1103/PhysRevLett.77.3865


 -------------------------------------------------------------------------------
 -                                                                             -
 -                                T I M I N G                                  -
 -                                                                             -
 -------------------------------------------------------------------------------
 SUBROUTINE                       CALLS  ASD         SELF TIME        TOTAL TIME
                                MAXIMUM       AVERAGE  MAXIMUM  AVERAGE  MAXIMUM
 CP2K                                 1  1.0    0.042    0.063  434.225  434.225
 qs_energies                          1  2.0    0.001    0.001  432.987  433.211
 scf_env_do_scf                       1  3.0    0.000    0.000  428.571  428.572
 scf_env_do_scf_inner_loop           79  4.0    0.002    0.005  428.571  428.572
 qs_ks_build_kohn_sham_matrix        80  7.0    0.013    0.015  321.711  321.719
 qs_ks_update_qs_env                 79  5.0    0.001    0.001  319.310  319.317
 rebuild_ks_matrix                   79  6.0    0.000    0.000  319.305  319.313
 fft_wrap_pw1pw2                   1671  9.9    0.040    0.049  192.934  195.134
 fft_wrap_pw1pw2_250               1191 11.1    8.458    9.535  186.979  189.425
 fft3d_ps                          1671 11.9   83.685   87.470  152.049  154.260
 pw_poisson_solve                    80  8.0    3.516    3.586  130.776  130.806
 qs_vxc_create                       80  8.0    0.001    0.001  117.274  117.274
 xc_vxc_pw_create                    79  9.0    2.106    2.171  117.273  117.273
 ps_wavelet_solve                    80  9.0   73.375   78.028   87.007   87.228
 xc_pw_derive                       474 11.0    0.006    0.007   84.034   86.437
 mp_alltoall_d54                     80 10.0    8.281   68.107    8.281   68.107
 gspace_mixing                       78  5.0    1.600    1.623   60.471   60.471
 xc_rho_set_and_dset_create          79 10.0    1.537    1.774   58.152   60.355
 xc_pw_divergence                    79 10.0    0.004    0.004   56.058   57.911
 mp_alltoall_z22v                  1671 13.9   42.351   55.003   42.351   55.003
 qs_rho_update_rho_low               80  5.0    0.001    0.001   48.913   48.915
 calculate_rho_elec                  80  6.0    1.747    1.784   48.847   48.849
 broyden_mixing                      78  6.0   45.218   45.935   46.209   46.492
 x_to_yz                            874 13.1   17.699   17.951   38.204   39.370
 yz_to_x                            797 12.8    8.290   10.171   30.136   38.187
 density_rs2pw                       80  7.0    0.006    0.007   36.333   36.836
 sum_up_and_integrate                80  8.0    0.001    0.002   26.284   26.322
 integrate_v_rspace                  80  9.0    0.002    0.003   25.790   25.858
 potential_pw2rs                     80 10.0    0.076    0.092   25.260   25.333
 prepare_gapw_den                    80  8.0    0.001    0.001   20.380   20.674
 put_rho0_on_grid                    80  9.0    1.635    1.669   19.939   20.234
 xc_functional_eval                 237 10.9    0.001    0.002   12.868   14.910
 pbe_lda_eval                       237 11.9   12.867   14.909   12.867   14.909
 transfer_pw2rs                     401 10.6    0.007    0.008   14.533   14.620
 pw_scatter_p                       874 12.1   13.922   14.140   13.922   14.140
 pw_gather_p                        797 11.8   11.573   12.620   11.573   12.620
 transfer_rs2pw                     401  8.4    0.011    0.015   12.278   12.506
 mp_waitany                       13496 11.5    9.995   10.890    9.995   10.890
 transfer_pw2rs_250                 161 11.0    3.925    4.164   10.653   10.800
 grid_collocate_task_list            80  7.0   10.111   10.536   10.111   10.536
 pw_derive                          714 11.3    9.494    9.913    9.494    9.913
 transfer_rs2pw_250                 161 10.0    3.986    4.194    9.153    9.429
 mp_sum_d                          1847  6.4    4.361    7.548    4.361    7.548
 integrate_vhg0_rspace               80  8.0    0.025    0.035    6.736    6.747
 mp_alltoall_d45                     81 10.0    4.416    5.923    4.416    5.923
 cp2k_distribution_to_z_slices       80  9.0    3.209    3.357    5.106    5.708
 fft_wrap_pw1pw2_90                 160 10.5    0.241    0.307    4.897    5.644
 pw_copy                           1195 10.6    5.049    5.374    5.049    5.374
 pw_poisson_set                      81  8.9    0.003    0.003    4.731    4.761
 hfx_ks_matrix                       80  8.0    0.003    0.003    4.645    4.739
 integrate_four_center               80  9.0    1.597    3.350    4.640    4.733
 pw_copy_to_array                   797 11.8    4.221    4.541    4.221    4.541
 mp_alltoall_d11v                  1520  9.5    3.235    4.392    3.235    4.392
 mp_sync                            845  9.5    2.600    4.233    2.600    4.233
 pw_axpy                            795  9.3    3.512    3.806    3.512    3.806
 mp2_main                             1  3.0    0.000    0.000    3.169    3.392
 rs_grid_zero                       402 11.2    3.279    3.352    3.279    3.352
 pw_integral_ab_c1d_c1d_gs           80  9.0    2.388    2.667    2.863    3.006
 pw_copy_from_array                 874 12.1    2.383    2.871    2.383    2.871
 compute_vec_Sigma_x_minus_vxc_       1  4.0    0.000    0.000    2.409    2.409
 transfer_pw2rs_90                   80 12.0    0.570    0.608    1.884    1.984
 mp_isend_dv                      13531 11.6    1.099    1.874    1.099    1.874
 pw_poisson_rebuild                  80  9.0    0.000    0.000    1.808    1.841
 ps_wavelet_create                    1 10.0    0.000    0.000    1.808    1.841
 RS_z_slice_distribution              1 11.0    1.661    1.714    1.808    1.841
 pw_zero                            476 10.3    1.601    1.664    1.601    1.664
 transfer_pw2rs_30                   80 12.0    0.901    0.945    1.534    1.650
 mp_waitall_1                     14924 12.1    1.041    1.553    1.041    1.553
 transfer_rs2pw_90                   80  9.0    0.462    0.496    1.425    1.508
 transfer_rs2pw_30                   80  9.0    0.705    0.728    1.354    1.375
 mp_sum_dm                          564  7.6    0.981    1.337    0.981    1.337
 calculate_vxc_atom                  80  8.0    0.019    0.126    1.309    1.309
 mp_max_i                           557  3.0    0.637    1.247    0.637    1.247
 scale_and_distribute               160 10.0    1.083    1.133    1.083    1.133
 gaVxcgb_GC                          79  9.0    0.091    1.096    0.091    1.096
 Vh_1c_gg_integrals                  80  8.0    0.010    0.073    0.336    1.079
 init_scf_run                         1  3.0    0.000    0.000    1.022    1.023
 scf_env_initial_rho_setup            1  4.0    0.000    0.000    1.017    1.017
 integrate_four_center_main          80 10.0    0.050    0.922    0.093    1.006
 integrate_four_center_bin         6092 11.0    0.043    0.989    0.043    0.989
 mp_sendrecv_dv                    3680 10.0    0.851    0.914    0.851    0.914
 mp_irecv_dm3                      1928 11.5    0.523    0.884    0.523    0.884
 fft_wrap_pw1pw2_30                 160 10.5    0.039    0.045    0.831    0.861
 qs_init_subsys                       1  2.0    0.006    0.007    0.855    0.855
 qs_env_setup                         1  3.0    0.000    0.000    0.846    0.847
 qs_env_rebuild_pw_env                2  3.5    0.000    0.000    0.845    0.846
 pw_env_rebuild                       1  5.0    0.001    0.001    0.844    0.845
 pw_grid_setup                        4  6.0    0.000    0.000    0.835    0.836
 pw_grid_setup_internal               4  7.0    0.020    0.024    0.835    0.836
 mp_isend_dm3                      1928 11.5    0.479    0.711    0.479    0.711
 pw_grid_sort                         4  8.0    0.471    0.475    0.667    0.672
 mp_sum_dv                         2209 11.0    0.463    0.637    0.463    0.637
 mp2_gpw_main                         1  4.0    0.000    0.000    0.588    0.598
 qs_scf_new_mos                      79  5.0    0.001    0.001    0.559    0.565
 rs_gather_matrices                  80 10.0    0.001    0.004    0.305    0.515
 grid_integrate_task_list            80 10.0    0.222    0.506    0.222    0.506
 pw_scale                           317  9.5    0.436    0.505    0.436    0.505
 transfer_pw2rs_10                   80 12.0    0.198    0.208    0.455    0.496
 rpa_ri_compute_en                    1  5.0    0.000    0.001    0.465    0.466
 rpa_num_int                          1  6.0    0.001    0.001    0.462    0.462
 mp_isendrecv_dv                   7360 12.0    0.235    0.418    0.235    0.418
 calculate_rho_atom                  80  9.0    0.133    0.411    0.133    0.411
 mp_sum_i                            17  9.9    0.224    0.378    0.224    0.378
 restraint_control                    1  2.0    0.000    0.000    0.224    0.377
 mp2_main_alloc_hfx                   1  4.0    0.154    0.377    0.154    0.377
 transfer_rs2pw_10                   80  9.0    0.133    0.137    0.336    0.346
 mixing_init                          1  5.0    0.289    0.295    0.295    0.296
 eigensolver_symm                    80  6.0    0.003    0.003    0.287    0.287
 compute_GW_self_energy             100  7.0    0.001    0.001    0.262    0.280
 cp_fm_syevd                         85  7.0    0.001    0.001    0.273    0.274
 xc_pw_smooth                        79 10.0    0.000    0.000    0.215    0.274
 calc_screening_functions             1 10.0    0.200    0.203    0.252    0.256
 compute_GW_self_energy_deep        100  8.0    0.105    0.120    0.207    0.225
 cp_fm_redistribute_end              85  8.0    0.124    0.219    0.126    0.221
 fft_wrap_pw1pw2_10                 160 10.5    0.009    0.011    0.187    0.206
 sort_shells                          4  9.0    0.196    0.199    0.196    0.199
 calculate_dm_sparse                 79  6.0    0.001    0.001    0.191    0.194
 cp_dbcsr_plus_fm_fm_t               79  7.0    0.001    0.001    0.191    0.193
 cp_fm_syevd_base                    85  8.0    0.095    0.190    0.095    0.190
 parallel_gemm_fm                   377  8.4    0.001    0.001    0.185    0.189
 parallel_gemm_fm_gemm              377  9.4    0.001    0.001    0.185    0.189
 cp_fm_gemm                         377 10.4    0.184    0.188    0.184    0.188
 dbcsr_multiply_generic             140  8.1    0.006    0.006    0.166    0.170
 scf_post_calculation_gpw             1  3.0    0.000    0.000    0.160    0.160
 write_available_results              1  4.0    0.000    0.000    0.160    0.160
 write_mo_free_results                1  5.0    0.027    0.029    0.160    0.160
 mp_irecv_dv                      13564 11.6    0.103    0.149    0.103    0.149
 rpa_num_int_RPA_matrix_operati     100  7.0    0.001    0.002    0.142    0.143
 pw_grid_assign                       4  8.0    0.104    0.108    0.107    0.110
 mp2_ri_gpw_compute_in                1  5.0    0.000    0.000    0.107    0.107
 mp2_ri_gpw_compute_in_loop           1  6.0    0.000    0.000    0.102    0.102
 calc_mat_Q                         100  8.0    0.000    0.000    0.100    0.101
 contract_S_to_Q                    100  9.0    0.000    0.001    0.098    0.100
 powell_optimize                  39470 11.0    0.096    0.099    0.096    0.099
 dbcsr_complete_redistribute        280  8.4    0.010    0.014    0.093    0.094
 make_m2s                           280  9.1    0.005    0.005    0.085    0.091
 copy_dbcsr_to_fm                   118  6.6    0.002    0.002    0.084    0.089
 calc_pair_dist_radii                 1 10.0    0.038    0.039    0.082    0.084
 contract_B_L                         4  7.0    0.001    0.001    0.065    0.074
 hirshfeld_integration                1  6.0    0.001    0.003    0.068    0.070
 calculate_rho_atom_coeff            80  6.0    0.014    0.027    0.065    0.065
 qs_energies_init_hamiltonians        1  3.0    0.000    0.000    0.064    0.064
 calculate_hirshfeld_normalizat       1  6.0    0.001    0.007    0.063    0.064
 build_core_hamiltonian_matrix        1  4.0    0.000    0.000    0.060    0.060
 overlap_condnum                      1  5.0    0.000    0.000    0.058    0.059
 offload_free_buffer                 88  8.5    0.047    0.058    0.047    0.058
 multiply_cannon                    140  9.1    0.010    0.011    0.053    0.056
 vxc_of_r_new                       158  9.0    0.001    0.008    0.004    0.054
 cp_fm_redistribute_start            85  8.0    0.036    0.037    0.052    0.053
 create_qs_kind_set                   1  2.0    0.000    0.000    0.052    0.052
 read_qs_kind                         1  3.0    0.016    0.024    0.052    0.052
 copy_fm_to_dbcsr                   162  8.1    0.001    0.001    0.049    0.050
 cp_fm_cholesky_invert              101  8.0    0.042    0.048    0.042    0.048
 cp_fm_to_fm_submat_general         112 10.1    0.045    0.047    0.045    0.047
 mp_cart_create                     343 10.5    0.035    0.045    0.036    0.045
 dbcsr_finalize                    2105 10.8    0.009    0.013    0.031    0.044
 -------------------------------------------------------------------------------

 The number of warnings for this run is : 1
 
 -------------------------------------------------------------------------------
  **** **** ******  **  PROGRAM ENDED AT                 2025-03-07 08:09:17.360
 ***** ** ***  *** **   PROGRAM RAN ON                              i01r06c04s02
 **    ****   ******    PROGRAM RAN BY                                   di38fab
 ***** **    ** ** **   PROGRAM PROCESS ID                                949278
  **** **  *******  **  PROGRAM STOPPED IN /hppfs/scratch/04/di38fab/05_MOL/W4-1
                                           1+ALK/li2/DZVP
