 DBCSR| CPU Multiplication driver                                           BLAS (U)
 DBCSR| Multrec recursion limit                                              512 (U)
 DBCSR| Multiplication stack size                                           1000 (D)
 DBCSR| Maximum elements for images                                    UNLIMITED (U)
 DBCSR| Multiplicative factor virtual images                                   1 (U)
 DBCSR| Use multiplication densification                                       T (D)
 DBCSR| Multiplication size stacks                                             3 (U)
 DBCSR| Use memory pool for CPU allocation                                     F (U)
 DBCSR| Number of 3D layers                                               SINGLE (U)
 DBCSR| Use MPI memory allocation                                              F (U)
 DBCSR| Use RMA algorithm                                                      F (U)
 DBCSR| Use Communication thread                                               T (U)
 DBCSR| Communication thread load                                             75 (D)
 DBCSR| MPI: My process id                                                     0
 DBCSR| MPI: Number of processes                                              48
 DBCSR| OMP: Current number of threads                                         4
 DBCSR| OMP: Max number of threads                                             4
 DBCSR| Split modifier for TAS multiplication algorithm                  1.0E+00 (U)


  **** **** ******  **  PROGRAM STARTED AT               2025-03-18 23:30:05.830
 ***** ** ***  *** **   PROGRAM STARTED ON                          i02r03c04s05
 **    ****   ******    PROGRAM STARTED BY                               di38fab
 ***** **    ** ** **   PROGRAM PROCESS ID                               1494419
  **** **  *******  **  PROGRAM STARTED IN /hppfs/scratch/04/di38fab/05_MOL/W4-1
                                           1+ALK/h2/aug-cc-pVQZ/GW+BSE

 CP2K| version string:                 CP2K version 2025.1 (Development Version)
 CP2K| source code revision number:                                  git:d2e611a
 CP2K| cp2kflags: omp libint fftw3 libxc parallel scalapack max_contr=4         
 CP2K| is freely available from                            https://www.cp2k.org/
 CP2K| Program compiled at                       Thu 06 Mar 2025 05:09:20 PM CET
 CP2K| Program compiled on                                               login02
 CP2K| Program compiled for                                        Supermuc-foss
 CP2K| Data directory path                  /hppfs/work/pn36zo/di38fab/cp2k/data
 CP2K| Input file name                                                    GW.inp

 GLOBAL| Force Environment number                                              1
 GLOBAL| Basis set file name            /hppfs/scratch/04/di38fab/04_TMD/BASIS_A
 GLOBAL| Potential file name            /hppfs/work/pn36zo/di38fab/cp2k/data/ALL
 GLOBAL| MM Potential file name                                     MM_POTENTIAL
 GLOBAL| Coordinate file name                                      __STD_INPUT__
 GLOBAL| Method name                                                        CP2K
 GLOBAL| Project name                                                       MoS2
 GLOBAL| Run type                                                         ENERGY
 GLOBAL| FFT library                                                       FFTW3
 GLOBAL| Diagonalization library                                       ScaLAPACK
 GLOBAL| DGEMM library                                                      BLAS
 GLOBAL| Orthonormality check for eigenvectors                          DISABLED
 GLOBAL| Matrix multiplication library                                 ScaLAPACK
 GLOBAL| All-to-all communication in single precision                          F
 GLOBAL| FFTs using library dependent lengths                                  F
 GLOBAL| Grid backend                                                       AUTO
 GLOBAL| Global print level                                               MEDIUM
 GLOBAL| MPI I/O enabled                                                       T
 GLOBAL| Total number of message passing processes                            48
 GLOBAL| Number of threads for this process                                    4
 GLOBAL| This output is from process                                           0
 GLOBAL| OpenMP stack size per thread (OMP_STACKSIZE)                    default
 GLOBAL| CPU model name             Intel(R) Xeon(R) Platinum 8174 CPU @ 3.10GHz

 MEMORY| system memory details [Kb]
 MEMORY|                        rank 0           min           max       average
 MEMORY| MemTotal             98436664      98436660      98436664      98436663
 MEMORY| MemFree              83717000      83435856      83875364      83692856
 MEMORY| Buffers                     0             0             0             0
 MEMORY| Cached                2406024       2398204       2435548       2417473
 MEMORY| Slab                  1225392       1206272       1235244       1224784
 MEMORY| SReclaimable           274024        263772        274076        269022
 MEMORY| MemLikelyFree        86397048      86135176      86569696      86379351


 *** Fundamental physical constants (SI units) ***

 *** Literature: B. J. Mohr and B. N. Taylor,
 ***             CODATA recommended values of the fundamental physical
 ***             constants: 2006, Web Version 5.1
 ***             http://physics.nist.gov/constants

 Speed of light in vacuum [m/s]                             2.99792458000000E+08
 Magnetic constant or permeability of vacuum [N/A**2]       1.25663706143592E-06
 Electric constant or permittivity of vacuum [F/m]          8.85418781762039E-12
 Planck constant (h) [J*s]                                  6.62606896000000E-34
 Planck constant (h-bar) [J*s]                              1.05457162825177E-34
 Elementary charge [C]                                      1.60217648700000E-19
 Electron mass [kg]                                         9.10938215000000E-31
 Electron g factor [ ]                                     -2.00231930436220E+00
 Proton mass [kg]                                           1.67262163700000E-27
 Fine-structure constant                                    7.29735253760000E-03
 Rydberg constant [1/m]                                     1.09737315685270E+07
 Avogadro constant [1/mol]                                  6.02214179000000E+23
 Boltzmann constant [J/K]                                   1.38065040000000E-23
 Atomic mass unit [kg]                                      1.66053878200000E-27
 Bohr radius [m]                                            5.29177208590000E-11

 *** Conversion factors ***

 [u] -> [a.u.]                                              1.82288848426455E+03
 [Angstrom] -> [Bohr] = [a.u.]                              1.88972613288564E+00
 [a.u.] = [Bohr] -> [Angstrom]                              5.29177208590000E-01
 [a.u.] -> [s]                                              2.41888432650478E-17
 [a.u.] -> [fs]                                             2.41888432650478E-02
 [a.u.] -> [J]                                              4.35974393937059E-18
 [a.u.] -> [N]                                              8.23872205491840E-08
 [a.u.] -> [K]                                              3.15774647902944E+05
 [a.u.] -> [kJ/mol]                                         2.62549961709828E+03
 [a.u.] -> [kcal/mol]                                       6.27509468713739E+02
 [a.u.] -> [Pa]                                             2.94210107994716E+13
 [a.u.] -> [bar]                                            2.94210107994716E+08
 [a.u.] -> [atm]                                            2.90362800883016E+08
 [a.u.] -> [eV]                                             2.72113838565563E+01
 [a.u.] -> [Hz]                                             6.57968392072181E+15
 [a.u.] -> [1/cm] (wave numbers)                            2.19474631370540E+05
 [a.u./Bohr**2] -> [1/cm]                                   5.14048714338585E+03
 

 CELL_TOP| Volume [angstrom^3]:                                     27000.000000
 CELL_TOP| Vector a [angstrom    30.000     0.000     0.000   |a| =    30.000000
 CELL_TOP| Vector b [angstrom     0.000    30.000     0.000   |b| =    30.000000
 CELL_TOP| Vector c [angstrom     0.000     0.000    30.000   |c| =    30.000000
 CELL_TOP| Angle (b,c), alpha [degree]:                                90.000000
 CELL_TOP| Angle (a,c), beta  [degree]:                                90.000000
 CELL_TOP| Angle (a,b), gamma [degree]:                                90.000000
 CELL_TOP| Numerically orthorhombic:                                         YES
 CELL_TOP| Periodicity                                                      NONE

 GENERATE|  Preliminary Number of Bonds generated:                             0
 GENERATE|  Achieved consistency in connectivity generation.

 CELL| Volume [angstrom^3]:                                         27000.000000
 CELL| Vector a [angstrom]:      30.000     0.000     0.000   |a| =    30.000000
 CELL| Vector b [angstrom]:       0.000    30.000     0.000   |b| =    30.000000
 CELL| Vector c [angstrom]:       0.000     0.000    30.000   |c| =    30.000000
 CELL| Angle (b,c), alpha [degree]:                                    90.000000
 CELL| Angle (a,c), beta  [degree]:                                    90.000000
 CELL| Angle (a,b), gamma [degree]:                                    90.000000
 CELL| Numerically orthorhombic:                                             YES
 CELL| Periodicity                                                          NONE

 CELL_REF| Volume [angstrom^3]:                                     27000.000000
 CELL_REF| Vector a [angstrom    30.000     0.000     0.000   |a| =    30.000000
 CELL_REF| Vector b [angstrom     0.000    30.000     0.000   |b| =    30.000000
 CELL_REF| Vector c [angstrom     0.000     0.000    30.000   |c| =    30.000000
 CELL_REF| Angle (b,c), alpha [degree]:                                90.000000
 CELL_REF| Angle (a,c), beta  [degree]:                                90.000000
 CELL_REF| Angle (a,b), gamma [degree]:                                90.000000
 CELL_REF| Numerically orthorhombic:                                         YES
 CELL_REF| Periodicity                                                      NONE

 *******************************************************************************
 *******************************************************************************
 **                                                                           **
 **     #####                         ##              ##                      **
 **    ##   ##            ##          ##              ##                      **
 **   ##     ##                       ##            ######                    **
 **   ##     ##  ##   ##  ##   #####  ##  ##   ####   ##    #####    #####    **
 **   ##     ##  ##   ##  ##  ##      ## ##   ##      ##   ##   ##  ##   ##   **
 **   ##  ## ##  ##   ##  ##  ##      ####     ###    ##   ######   ######    **
 **    ##  ###   ##   ##  ##  ##      ## ##      ##   ##   ##       ##        **
 **     #######   #####   ##   #####  ##  ##  ####    ##    #####   ##        **
 **           ##                                                    ##        **
 **                                                                           **
 **                                                ... make the atoms dance   **
 **                                                                           **
 **            Copyright (C) by CP2K developers group (2000-2025)             **
 **                      J. Chem. Phys. 152, 194103 (2020)                    **
 **                                                                           **
 *******************************************************************************

 DFT| Spin restricted Kohn-Sham (RKS) calculation                            RKS
 DFT| Multiplicity                                                             1
 DFT| Number of spin states                                                    1
 DFT| Charge                                                                   0
 DFT| Self-interaction correction (SIC)                                       NO
 DFT| Cutoffs: density                                              1.000000E-10
 DFT|          gradient                                             1.000000E-10
 DFT|          tau                                                  1.000000E-10
 DFT|          cutoff_smoothing_range                               0.000000E+00
 DFT| XC density smoothing                                                  NONE
 DFT| XC derivatives                                                          PW

 FUNCTIONAL| PBE:
 FUNCTIONAL| J.P.Perdew, K.Burke, M.Ernzerhof, Phys. Rev. Letter, vol. 77, n 18,
 FUNCTIONAL|  pp. 3865-3868, (1996)sx=0.750sc=1.000{spin unpolarized}           


 QS| Method:                                                                GAPW
 QS| Density plane wave grid type                        NON-SPHERICAL FULLSPACE
 QS| Number of grid levels:                                                    4
 QS| Density cutoff [a.u.]:                                                250.0
 QS| Multi grid cutoff [a.u.]: 1) grid level                               250.0
 QS|                           2) grid level                                83.3
 QS|                           3) grid level                                27.8
 QS|                           4) grid level                                 9.3
 QS| Grid level progression factor:                                          3.0
 QS| Relative density cutoff [a.u.]:                                        50.0
 QS| Interaction thresholds: eps_pgf_orb:                                1.0E-12
 QS|                         eps_filter_matrix:                          0.0E+00
 QS|                         eps_core_charge:                            1.0E-14
 QS|                         eps_rho_gspace:                             1.0E-12
 QS|                         eps_rho_rspace:                             1.0E-12
 QS|                         eps_gvg_rspace:                             1.0E-06
 QS|                         eps_ppl:                                    1.0E-02
 QS|                         eps_ppnl:                                   1.0E-08
 QS| GAPW|      One center basis from orbital basis primitives
 QS| GAPW|                   eps_fit:                                    1.0E-04
 QS| GAPW|                   eps_iso:                                    1.0E-12
 QS| GAPW|                   eps_svd:                                    1.0E-08
 QS| GAPW|                   eps_cpc:                                    1.0E-12
 QS| GAPW|   atom-r-grid: quadrature:                                     GC_LOG
 QS| GAPW|      atom-s-grid:  max l :                                          6
 QS| GAPW|      max_l_rho0 :                                                   2


 ATOMIC KIND INFORMATION

  1. Atomic kind: H                                     Number of atoms:       2

     Orbital Basis Set                                               aug-cc-pVQZ

       Number of orbital shell sets:                                           8
       Number of orbital shells:                                              14
       Number of primitive Cartesian functions:                               16
       Number of Cartesian basis functions:                                   55
       Number of spherical basis functions:                                   46
       Norm type:                                                              2

       Normalised Cartesian orbitals:

                        Set   Shell   Orbital            Exponent    Coefficient

                          1       1    1s                0.023630       0.042954

                          2       1    1px               0.084800       0.065228
                          2       1    1py               0.084800       0.065228
                          2       1    1pz               0.084800       0.065228

                          3       1    1s               82.640000       0.000000
                                                        12.410000       0.000000
                                                         2.824000       0.000000
                                                         0.797700       0.601575
                                                         0.258100       0.000000
                                                         0.089890       0.000000

                          3       2    2s               82.640000       0.000000
                                                        12.410000       0.000000
                                                         2.824000       0.000000
                                                         0.797700       0.000000
                                                         0.258100       0.258078
                                                         0.089890       0.000000

                          3       3    3s               82.640000       0.039186
                                                        12.410000       0.072302
                                                         2.824000       0.117344
                                                         0.797700       0.154530
                                                         0.258100       0.128360
                                                         0.089890       0.034648

                          3       4    4s               82.640000       0.000000
                                                        12.410000       0.000000
                                                         2.824000       0.000000
                                                         0.797700       0.000000
                                                         0.258100       0.000000
                                                         0.089890       0.117002

                          4       1    1dx2              0.190000       0.089997
                          4       1    1dxy              0.190000       0.155879
                          4       1    1dxz              0.190000       0.155879
                          4       1    1dy2              0.190000       0.089997
                          4       1    1dyz              0.190000       0.155879
                          4       1    1dz2              0.190000       0.089997

                          5       1    1px               2.292000       4.019836
                                                         0.838000       0.000000
                                                         0.292000       0.000000
                          5       1    1py               2.292000       4.019836
                                                         0.838000       0.000000
                                                         0.292000       0.000000
                          5       1    1pz               2.292000       4.019836
                                                         0.838000       0.000000
                                                         0.292000       0.000000

                          5       2    2px               2.292000       0.000000
                                                         0.838000       1.142865
                                                         0.292000       0.000000
                          5       2    2py               2.292000       0.000000
                                                         0.838000       1.142865
                                                         0.292000       0.000000
                          5       2    2pz               2.292000       0.000000
                                                         0.838000       1.142865
                                                         0.292000       0.000000

                          5       3    3px               2.292000       0.000000
                                                         0.838000       0.000000
                                                         0.292000       0.305963
                          5       3    3py               2.292000       0.000000
                                                         0.838000       0.000000
                                                         0.292000       0.305963
                          5       3    3pz               2.292000       0.000000
                                                         0.838000       0.000000
                                                         0.292000       0.305963

                          6       1    1fx3              0.360000       0.147787
                          6       1    1fx2y             0.360000       0.330461
                          6       1    1fx2z             0.360000       0.330461
                          6       1    1fxy2             0.360000       0.330461
                          6       1    1fxyz             0.360000       0.572375
                          6       1    1fxz2             0.360000       0.330461
                          6       1    1fy3              0.360000       0.147787
                          6       1    1fy2z             0.360000       0.330461
                          6       1    1fyz2             0.360000       0.330461
                          6       1    1fz3              0.360000       0.147787

                          7       1    1dx2              2.062000       5.840024
                                                         0.662000       0.000000
                          7       1    1dxy              2.062000      10.115218
                                                         0.662000       0.000000
                          7       1    1dxz              2.062000      10.115218
                                                         0.662000       0.000000
                          7       1    1dy2              2.062000       5.840024
                                                         0.662000       0.000000
                          7       1    1dyz              2.062000      10.115218
                                                         0.662000       0.000000
                          7       1    1dz2              2.062000       5.840024
                                                         0.662000       0.000000

                          7       2    2dx2              2.062000       0.000000
                                                         0.662000       0.799670
                          7       2    2dxy              2.062000       0.000000
                                                         0.662000       1.385069
                          7       2    2dxz              2.062000       0.000000
                                                         0.662000       1.385069
                          7       2    2dy2              2.062000       0.000000
                                                         0.662000       0.799670
                          7       2    2dyz              2.062000       0.000000
                                                         0.662000       1.385069
                          7       2    2dz2              2.062000       0.000000
                                                         0.662000       0.799670

                          8       1    1fx3              1.397000       3.123535
                          8       1    1fx2y             1.397000       6.984436
                          8       1    1fx2z             1.397000       6.984436
                          8       1    1fxy2             1.397000       6.984436
                          8       1    1fxyz             1.397000      12.097399
                          8       1    1fxz2             1.397000       6.984436
                          8       1    1fy3              1.397000       3.123535
                          8       1    1fy2z             1.397000       6.984436
                          8       1    1fyz2             1.397000       6.984436
                          8       1    1fz3              1.397000       3.123535

     RI Auxiliary Basis Set                                    aug-cc-pVQZ-OPTRI

       Number of orbital shell sets:                                          15
       Number of orbital shells:                                              15
       Number of primitive Cartesian functions:                               15
       Number of Cartesian basis functions:                                   84
       Number of spherical basis functions:                                   63
       Norm type:                                                              2

       Normalised Cartesian orbitals:

                        Set   Shell   Orbital            Exponent    Coefficient

                          1       1    1s                0.172202       0.190519

                          2       1    1dx2              0.411937       0.348629
                          2       1    1dxy              0.411937       0.603843
                          2       1    1dxz              0.411937       0.603843
                          2       1    1dy2              0.411937       0.348629
                          2       1    1dyz              0.411937       0.603843
                          2       1    1dz2              0.411937       0.348629

                          3       1    1s                0.462666       0.399817

                          4       1    1px               0.544212       0.666270
                          4       1    1py               0.544212       0.666270
                          4       1    1pz               0.544212       0.666270

                          5       1    1fx3              0.798039       0.886153
                          5       1    1fx2y             0.798039       1.981498
                          5       1    1fx2z             0.798039       1.981498
                          5       1    1fxy2             0.798039       1.981498
                          5       1    1fxyz             0.798039       3.432056
                          5       1    1fxz2             0.798039       1.981498
                          5       1    1fy3              0.798039       0.886153
                          5       1    1fy2z             0.798039       1.981498
                          5       1    1fyz2             0.798039       1.981498
                          5       1    1fz3              0.798039       0.886153

                          6       1    1gx4              1.030651       1.209184
                          6       1    1gx3y             1.030651       3.199200
                          6       1    1gx3z             1.030651       3.199200
                          6       1    1gx2y2            1.030651       4.130150
                          6       1    1gx2yz            1.030651       7.153629
                          6       1    1gx2z2            1.030651       4.130150
                          6       1    1gxy3             1.030651       3.199200
                          6       1    1gxy2z            1.030651       7.153629
                          6       1    1gxyz2            1.030651       7.153629
                          6       1    1gxz3             1.030651       3.199200
                          6       1    1gy4              1.030651       1.209184
                          6       1    1gy3z             1.030651       3.199200
                          6       1    1gy2z2            1.030651       4.130150
                          6       1    1gyz3             1.030651       3.199200
                          6       1    1gz4              1.030651       1.209184

                          7       1    1dx2              1.146690       2.091414
                          7       1    1dxy              1.146690       3.622435
                          7       1    1dxz              1.146690       3.622435
                          7       1    1dy2              1.146690       2.091414
                          7       1    1dyz              1.146690       3.622435
                          7       1    1dz2              1.146690       2.091414

                          8       1    1px               1.259771       1.902412
                          8       1    1py               1.259771       1.902412
                          8       1    1pz               1.259771       1.902412

                          9       1    1gx4              2.069345       8.221970
                          9       1    1gx3y             2.069345      21.753289
                          9       1    1gx3z             2.069345      21.753289
                          9       1    1gx2y2            2.069345      28.083375
                          9       1    1gx2yz            2.069345      48.641833
                          9       1    1gx2z2            2.069345      28.083375
                          9       1    1gxy3             2.069345      21.753289
                          9       1    1gxy2z            2.069345      48.641833
                          9       1    1gxyz2            2.069345      48.641833
                          9       1    1gxz3             2.069345      21.753289
                          9       1    1gy4              2.069345       8.221970
                          9       1    1gy3z             2.069345      21.753289
                          9       1    1gy2z2            2.069345      28.083375
                          9       1    1gyz3             2.069345      21.753289
                          9       1    1gz4              2.069345       8.221970

                         10       1    1s                2.171468       1.274897

                         11       1    1fx3              2.250697       9.134142
                         11       1    1fx2y             2.250697      20.424563
                         11       1    1fx2z             2.250697      20.424563
                         11       1    1fxy2             2.250697      20.424563
                         11       1    1fxyz             2.250697      35.376381
                         11       1    1fxz2             2.250697      20.424563
                         11       1    1fy3              2.250697       9.134142
                         11       1    1fy2z             2.250697      20.424563
                         11       1    1fyz2             2.250697      20.424563
                         11       1    1fz3              2.250697       9.134142

                         12       1    1dx2              3.086886      11.832336
                         12       1    1dxy              3.086886      20.494207
                         12       1    1dxz              3.086886      20.494207
                         12       1    1dy2              3.086886      11.832336
                         12       1    1dyz              3.086886      20.494207
                         12       1    1dz2              3.086886      11.832336

                         13       1    1px               7.317025      17.153718
                         13       1    1py               7.317025      17.153718
                         13       1    1pz               7.317025      17.153718

                         14       1    1s                7.744478       3.308676

                         15       1    1px              11.094357      28.861424
                         15       1    1py              11.094357      28.861424
                         15       1    1pz              11.094357      28.861424

       Atomic covalent radius [Angstrom]:                                  0.320

       Atomic van der Waals radius [Angstrom]:                             1.090

     The atoms of this atomic kind are PAW atoms (GAPW):
       Hard Gaussian function radius:                                      1.200
       Rho0 radius:                                                        1.200
       Maximum GTO radius used for PAW projector construction:            24.566

     GAPW Soft Basis Set                                        aug-cc-pVQZ_soft

       Number of orbital shell sets:                                           8
       Number of orbital shells:                                              14
       Number of primitive Cartesian functions:                               14
       Number of Cartesian basis functions:                                   55
       Number of spherical basis functions:                                   46
       Norm type:                                                              2

       Normalised Cartesian orbitals:

                        Set   Shell   Orbital            Exponent    Coefficient

                          1       1    1s                0.023630       0.042954

                          2       1    1px               0.084800       0.065228
                          2       1    1py               0.084800       0.065228
                          2       1    1pz               0.084800       0.065228

                          3       1    1s                2.824000       0.000000
                                                         0.797700       0.601575
                                                         0.258100       0.000000
                                                         0.089890       0.000000

                          3       2    2s                2.824000       0.000000
                                                         0.797700       0.000000
                                                         0.258100       0.258078
                                                         0.089890       0.000000

                          3       3    3s                2.824000       0.117344
                                                         0.797700       0.154530
                                                         0.258100       0.128360
                                                         0.089890       0.034648

                          3       4    4s                2.824000       0.000000
                                                         0.797700       0.000000
                                                         0.258100       0.000000
                                                         0.089890       0.117002

                          4       1    1dx2              0.190000       0.089997
                          4       1    1dxy              0.190000       0.155879
                          4       1    1dxz              0.190000       0.155879
                          4       1    1dy2              0.190000       0.089997
                          4       1    1dyz              0.190000       0.155879
                          4       1    1dz2              0.190000       0.089997

                          5       1    1px               2.292000       4.019836
                                                         0.838000       0.000000
                                                         0.292000       0.000000
                          5       1    1py               2.292000       4.019836
                                                         0.838000       0.000000
                                                         0.292000       0.000000
                          5       1    1pz               2.292000       4.019836
                                                         0.838000       0.000000
                                                         0.292000       0.000000

                          5       2    2px               2.292000       0.000000
                                                         0.838000       1.142865
                                                         0.292000       0.000000
                          5       2    2py               2.292000       0.000000
                                                         0.838000       1.142865
                                                         0.292000       0.000000
                          5       2    2pz               2.292000       0.000000
                                                         0.838000       1.142865
                                                         0.292000       0.000000

                          5       3    3px               2.292000       0.000000
                                                         0.838000       0.000000
                                                         0.292000       0.305963
                          5       3    3py               2.292000       0.000000
                                                         0.838000       0.000000
                                                         0.292000       0.305963
                          5       3    3pz               2.292000       0.000000
                                                         0.838000       0.000000
                                                         0.292000       0.305963

                          6       1    1fx3              0.360000       0.147787
                          6       1    1fx2y             0.360000       0.330461
                          6       1    1fx2z             0.360000       0.330461
                          6       1    1fxy2             0.360000       0.330461
                          6       1    1fxyz             0.360000       0.572375
                          6       1    1fxz2             0.360000       0.330461
                          6       1    1fy3              0.360000       0.147787
                          6       1    1fy2z             0.360000       0.330461
                          6       1    1fyz2             0.360000       0.330461
                          6       1    1fz3              0.360000       0.147787

                          7       1    1dx2              2.062000       5.840024
                                                         0.662000       0.000000
                          7       1    1dxy              2.062000      10.115218
                                                         0.662000       0.000000
                          7       1    1dxz              2.062000      10.115218
                                                         0.662000       0.000000
                          7       1    1dy2              2.062000       5.840024
                                                         0.662000       0.000000
                          7       1    1dyz              2.062000      10.115218
                                                         0.662000       0.000000
                          7       1    1dz2              2.062000       5.840024
                                                         0.662000       0.000000

                          7       2    2dx2              2.062000       0.000000
                                                         0.662000       0.799670
                          7       2    2dxy              2.062000       0.000000
                                                         0.662000       1.385069
                          7       2    2dxz              2.062000       0.000000
                                                         0.662000       1.385069
                          7       2    2dy2              2.062000       0.000000
                                                         0.662000       0.799670
                          7       2    2dyz              2.062000       0.000000
                                                         0.662000       1.385069
                          7       2    2dz2              2.062000       0.000000
                                                         0.662000       0.799670

                          8       1    1fx3              1.397000       3.123535
                          8       1    1fx2y             1.397000       6.984436
                          8       1    1fx2z             1.397000       6.984436
                          8       1    1fxy2             1.397000       6.984436
                          8       1    1fxyz             1.397000      12.097399
                          8       1    1fxz2             1.397000       6.984436
                          8       1    1fy3              1.397000       3.123535
                          8       1    1fy2z             1.397000       6.984436
                          8       1    1fyz2             1.397000       6.984436
                          8       1    1fz3              1.397000       3.123535

     AE Potential information for                                            ALL

       Description:                                       All-electron potential
                                          Krack, Parrinello, PCCP 2, 2105 (2000)

       Gaussian exponent of the core charge distribution:              12.500000
       Electronic configuration (s p d ...):                           1   0   0


 MOLECULE KIND INFORMATION


 All atoms are their own molecule, skipping detailed information


 TOTAL NUMBERS AND MAXIMUM NUMBERS

  Total number of            - Atomic kinds:                                   1
                             - Atoms:                                          2
                             - Shell sets:                                    16
                             - Shells:                                        28
                             - Primitive Cartesian functions:                 32
                             - Cartesian basis functions:                    110
                             - Spherical basis functions:                     92

  Maximum angular momentum of the orbital basis functions:                     3


 MODULE QUICKSTEP: ATOMIC COORDINATES IN ANGSTROM

   Atom Kind Element         X             Y             Z       Z(eff)     Mass
      1    1 H     1     15.370946     15.000000     15.000000   1.0000   1.0079
      2    1 H     1     14.629054     15.000000     15.000000   1.0000   1.0079



 SCF PARAMETERS         Density guess:                                    ATOMIC
                        --------------------------------------------------------
                        max_scf:                                             500
                        max_scf_history:                                       0
                        max_diis:                                              4
                        --------------------------------------------------------
                        eps_scf:                                        1.00E-06
                        eps_scf_history:                                0.00E+00
                        eps_diis:                                       1.00E-01
                        eps_eigval:                                     1.00E-05
                        --------------------------------------------------------
                        level_shift [a.u.]:                             0.000000
                        added MOs                                        91    0
                        --------------------------------------------------------
                        Mixing method:                            BROYDEN_MIXING
                                                charge density mixing in g-space
                        --------------------------------------------------------
                        No outer SCF

 PW_GRID| Information for grid number                                          1
 PW_GRID| Grid distributed over                                    48 processors
 PW_GRID| Real space group dimensions                                    48    1
 PW_GRID| the grid is blocked:                                                NO
 PW_GRID| Cutoff [a.u.]                                                    250.0
 PW_GRID| spherical cutoff:                                                   NO
 PW_GRID|   Bounds   1           -202     202                Points:         405
 PW_GRID|   Bounds   2           -202     202                Points:         405
 PW_GRID|   Bounds   3           -202     202                Points:         405
 PW_GRID| Volume element (a.u.^3)  0.2743E-02     Volume (a.u.^3)    182205.0337
 PW_GRID| Grid span                                                    FULLSPACE
 PW_GRID|   Distribution                         Average         Max         Min
 PW_GRID|   G-Vectors                          1383960.9     1384290     1383885
 PW_GRID|   G-Rays                                3417.2        3418        3417
 PW_GRID|   Real Space Points                  1383960.9     1476225     1312200

 PW_GRID| Information for grid number                                          2
 PW_GRID| Number of the reference grid                                         1
 PW_GRID| Grid distributed over                                    48 processors
 PW_GRID| Real space group dimensions                                    48    1
 PW_GRID| the grid is blocked:                                                NO
 PW_GRID| Cutoff [a.u.]                                                     83.3
 PW_GRID| spherical cutoff:                                                   NO
 PW_GRID|   Bounds   1           -120     119                Points:         240
 PW_GRID|   Bounds   2           -120     119                Points:         240
 PW_GRID|   Bounds   3           -120     119                Points:         240
 PW_GRID| Volume element (a.u.^3)  0.1318E-01     Volume (a.u.^3)    182205.0337
 PW_GRID| Grid span                                                    FULLSPACE
 PW_GRID|   Distribution                         Average         Max         Min
 PW_GRID|   G-Vectors                           288000.0      288720      287520
 PW_GRID|   G-Rays                                1200.0        1203        1198
 PW_GRID|   Real Space Points                   288000.0      288000      288000

 PW_GRID| Information for grid number                                          3
 PW_GRID| Number of the reference grid                                         1
 PW_GRID| Grid distributed over                                    48 processors
 PW_GRID| Real space group dimensions                                    48    1
 PW_GRID| the grid is blocked:                                                NO
 PW_GRID| Cutoff [a.u.]                                                     27.8
 PW_GRID| spherical cutoff:                                                   NO
 PW_GRID|   Bounds   1            -67      67                Points:         135
 PW_GRID|   Bounds   2            -67      67                Points:         135
 PW_GRID|   Bounds   3            -67      67                Points:         135
 PW_GRID| Volume element (a.u.^3)  0.7406E-01     Volume (a.u.^3)    182205.0337
 PW_GRID| Grid span                                                    FULLSPACE
 PW_GRID|   Distribution                         Average         Max         Min
 PW_GRID|   G-Vectors                            51257.8       51570       51030
 PW_GRID|   G-Rays                                 379.7         382         378
 PW_GRID|   Real Space Points                    51257.8       54675       36450

 PW_GRID| Information for grid number                                          4
 PW_GRID| Number of the reference grid                                         1
 PW_GRID| Grid distributed over                                    48 processors
 PW_GRID| Real space group dimensions                                    48    1
 PW_GRID| the grid is blocked:                                                NO
 PW_GRID| Cutoff [a.u.]                                                      9.3
 PW_GRID| spherical cutoff:                                                   NO
 PW_GRID|   Bounds   1            -40      39                Points:          80
 PW_GRID|   Bounds   2            -40      39                Points:          80
 PW_GRID|   Bounds   3            -40      39                Points:          80
 PW_GRID| Volume element (a.u.^3)  0.3559         Volume (a.u.^3)    182205.0337
 PW_GRID| Grid span                                                    FULLSPACE
 PW_GRID|   Distribution                         Average         Max         Min
 PW_GRID|   G-Vectors                            10666.7       10800       10560
 PW_GRID|   G-Rays                                 133.3         135         132
 PW_GRID|   Real Space Points                    10666.7       12800        6400

 POISSON| Solver                                                         WAVELET
 POISSON| Wavelet| Scaling function                                           40
 POISSON| Periodicity                                                       NONE

 RS_GRID| Information for grid number                                          1
 RS_GRID|   Bounds   1           -202     202                Points:         405
 RS_GRID|   Bounds   2           -202     202                Points:         405
 RS_GRID|   Bounds   3           -202     202                Points:         405
 RS_GRID| Real space distribution over                                  3 groups
 RS_GRID| Real space distribution along direction                              1
 RS_GRID| Border size                                                         36
 RS_GRID| Real space distribution over                                  4 groups
 RS_GRID| Real space distribution along direction                              2
 RS_GRID| Border size                                                         36
 RS_GRID| Real space distribution over                                  4 groups
 RS_GRID| Real space distribution along direction                              3
 RS_GRID| Border size                                                         36
 RS_GRID|   Distribution                         Average         Max         Min
 RS_GRID|   Planes                                 207.0         207         207
 RS_GRID|   Distribution                         Average         Max         Min
 RS_GRID|   Planes                                 173.2         174         173
 RS_GRID|   Distribution                         Average         Max         Min
 RS_GRID|   Planes                                 173.2         174         173

 RS_GRID| Information for grid number                                          2
 RS_GRID|   Bounds   1           -120     119                Points:         240
 RS_GRID|   Bounds   2           -120     119                Points:         240
 RS_GRID|   Bounds   3           -120     119                Points:         240
 RS_GRID| Real space distribution over                                  3 groups
 RS_GRID| Real space distribution along direction                              1
 RS_GRID| Border size                                                         35
 RS_GRID| Real space distribution over                                  4 groups
 RS_GRID| Real space distribution along direction                              2
 RS_GRID| Border size                                                         35
 RS_GRID| Real space distribution over                                  4 groups
 RS_GRID| Real space distribution along direction                              3
 RS_GRID| Border size                                                         35
 RS_GRID|   Distribution                         Average         Max         Min
 RS_GRID|   Planes                                 150.0         150         150
 RS_GRID|   Distribution                         Average         Max         Min
 RS_GRID|   Planes                                 130.0         130         130
 RS_GRID|   Distribution                         Average         Max         Min
 RS_GRID|   Planes                                 130.0         130         130

 RS_GRID| Information for grid number                                          3
 RS_GRID|   Bounds   1            -67      67                Points:         135
 RS_GRID|   Bounds   2            -67      67                Points:         135
 RS_GRID|   Bounds   3            -67      67                Points:         135
 RS_GRID| Real space fully replicated
 RS_GRID| Group size                                                           1

 RS_GRID| Information for grid number                                          4
 RS_GRID|   Bounds   1            -40      39                Points:          80
 RS_GRID|   Bounds   2            -40      39                Points:          80
 RS_GRID|   Bounds   3            -40      39                Points:          80
 RS_GRID| Real space fully replicated
 RS_GRID| Group size                                                           1

  HFX_INFO| Replica ID:                                                        1
  HFX_INFO| FRACTION:                                               0.2500000000
  HFX_INFO| Interaction Potential:                                       COULOMB
  HFX_INFO| EPS_SCHWARZ:                                                 1.0E-10
  HFX_INFO| EPS_SCHWARZ_FORCES                                           1.0E-08
  HFX_INFO| EPS_STORAGE_SCALING:                                         1.0E+00
  HFX_INFO| NBINS:                                                            64
  HFX_INFO| BLOCK_SIZE:                                                        1
  HFX_INFO| Number of periodic shells considered:                           NONE
  HFX_INFO| Number of periodic cells considered:                            NONE

 
 RI-RPA| using GPW style
 

 OVERLAP MATRIX CONDITION NUMBER
 1-Norm Condition Number (Estimate)
   CN : |A|*|A^-1|:  9.876E+000 *  4.857E+004   = 4.797E+005  Log(1-CN):  5.6810
 1-Norm and 2-Norm Condition Numbers using Diagonalization
   CN : |A|*|A^-1|:  9.876E+000 *  4.857E+004   = 4.797E+005  Log(1-CN):  5.6810
   CN : max/min ev:  7.085E+000 /  3.157E-005   = 2.245E+005  Log(2-CN):  5.3511

 Number of electrons:                                                          2
 Number of occupied orbitals:                                                  1
 Number of molecular orbitals:                                                92

 Number of orbital functions:                                                 92
 Number of independent orbital functions:                                     92

 Extrapolation method: initial_guess

 Atomic guess: The first density matrix is obtained in terms of atomic orbitals
               and electronic configurations assigned to each atomic kind

 Guess for atomic kind: H

 Electronic structure
    Total number of core electrons                                          0.00
    Total number of valence electrons                                       1.00
    Total number of electrons                                               1.00
    Multiplicity                                                   not specified
    S      1.00


 *******************************************************************************
                  Iteration          Convergence                     Energy [au]
 *******************************************************************************
                          1        0.840470E-02                  -0.445383579865
                          2        0.102993E-02                  -0.445483338992
                          3        0.105129E-03                  -0.445485913472
                          4        0.467123E-06                  -0.445485940964

 Energy components [Hartree]           Total Energy ::           -0.445485940964
                                        Band Energy ::           -0.233237490895
                                     Kinetic Energy ::            0.424520998035
                                   Potential Energy ::           -0.870006938999
                                      Virial (-V/T) ::            2.049384937440
                                        Core Energy ::           -0.495891059100
                                          XC Energy ::           -0.232280897718
                                     Coulomb Energy ::            0.282686015854

 Orbital energies  State     L     Occupation   Energy[a.u.]          Energy[eV]

                       1     0          1.000      -0.233237           -6.346715


 Total Electron Density at R=0:                                         0.256049
 Re-scaling the density matrix to get the right number of electrons
                  # Electrons              Trace(P)               Scaling factor
                            2                 2.000                        1.000


 SCF WAVEFUNCTION OPTIMIZATION

  Step     Update method      Time    Convergence         Total energy    Change
  ------------------------------------------------------------------------------

  HFX_MEM_INFO| Est. max. program size before HFX [MiB]:                    1330
  HFX_MEM_INFO| Number of cart. primitive ERI's calculated:             63315310
  HFX_MEM_INFO| Number of sph. ERI's calculated:                        26864736
  HFX_MEM_INFO| Number of sph. ERI's stored in-core:                    26864736
  HFX_MEM_INFO| Number of sph. ERI's stored on disk:                           0
  HFX_MEM_INFO| Number of sph. ERI's calculated on the fly:                    0
  HFX_MEM_INFO| Total memory consumption ERI's RAM [MiB]:                     95
  HFX_MEM_INFO| Whereof max-vals [MiB]:                                        2
  HFX_MEM_INFO| Total compression factor ERI's RAM:                         2.18
  HFX_MEM_INFO| Total memory consumption ERI's disk [MiB]:                     0
  HFX_MEM_INFO| Total compression factor ERI's disk:                        0.00
  HFX_MEM_INFO| Size of density/Fock matrix [MiB]:                             0
  HFX_MEM_INFO| Size of buffers [MiB]:                                         0
  HFX_MEM_INFO| Est. max. program size after HFX  [MiB]:                    1849

     1 NoMix/Diag. 0.10E+00    5.4     1.53179449        -0.9449542448 -9.45E-01
     2 Broy./Diag. 0.10E+00    2.7     0.15182895        -0.7705171877  1.74E-01
     3 Broy./Diag. 0.10E+00    2.8     0.20963449        -0.3672432172  4.03E-01
     4 Broy./Diag. 0.10E+00    2.8     0.07712393        -0.5022575566 -1.35E-01
     5 Broy./Diag. 0.10E+00    2.8     0.05589599        -0.5988407700 -9.66E-02
     6 Broy./Diag. 0.10E+00    2.8     0.01282297        -0.6213414886 -2.25E-02
     7 Broy./Diag. 0.10E+00    2.8     0.13001657        -0.8159005375 -1.95E-01
     8 Broy./Diag. 0.10E+00    2.9     0.02155829        -0.8690914512 -5.32E-02
     9 Broy./Diag. 0.10E+00    2.9     0.04156639        -0.9410116840 -7.19E-02
    10 Broy./Diag. 0.10E+00    2.9     0.05856012        -1.0390443391 -9.80E-02
    11 Broy./Diag. 0.10E+00    2.9     0.05320268        -1.1294107723 -9.04E-02
    12 Broy./Diag. 0.10E+00    2.9     0.01004959        -1.1547371716 -2.53E-02
    13 Broy./Diag. 0.10E+00    2.9     0.00602781        -1.1471325020  7.60E-03
    14 Broy./Diag. 0.10E+00    3.0     0.00792655        -1.1519268075 -4.79E-03
    15 Broy./Diag. 0.10E+00    2.9     0.00617828        -1.1615945467 -9.67E-03
    16 Broy./Diag. 0.10E+00    2.9     0.00197238        -1.1651742779 -3.58E-03
    17 Broy./Diag. 0.10E+00    2.9     0.00652098        -1.1619764806  3.20E-03
    18 Broy./Diag. 0.10E+00    2.9     0.00346817        -1.1660852709 -4.11E-03
    19 Broy./Diag. 0.10E+00    2.9     0.00238740        -1.1697997198 -3.71E-03
    20 Broy./Diag. 0.10E+00    3.0     0.00086539        -1.1687379612  1.06E-03
    21 Broy./Diag. 0.10E+00    2.9     0.00110071        -1.1676153432  1.12E-03
    22 Broy./Diag. 0.10E+00    2.9     0.00181650        -1.1689430014 -1.33E-03
    23 Broy./Diag. 0.10E+00    2.9     0.00059971        -1.1695447257 -6.02E-04
    24 Broy./Diag. 0.10E+00    2.9     0.00069753        -1.1686839259  8.61E-04
    25 Broy./Diag. 0.10E+00    2.9     0.00035415        -1.1690412164 -3.57E-04
    26 Broy./Diag. 0.10E+00    2.9     0.00033689        -1.1693954855 -3.54E-04
    27 Broy./Diag. 0.10E+00    2.9     0.00037868        -1.1689981504  3.97E-04
    28 Broy./Diag. 0.10E+00    2.9     0.00005253        -1.1688625689  1.36E-04
    29 Broy./Diag. 0.10E+00    2.9     0.00027925        -1.1691471472 -2.85E-04
    30 Broy./Diag. 0.10E+00    3.0     0.00014191        -1.1690386069  1.09E-04
    31 Broy./Diag. 0.10E+00    2.9     0.00002767        -1.1690123657  2.62E-05
    32 Broy./Diag. 0.10E+00    2.9     0.00017563        -1.1690752167 -6.29E-05
    33 Broy./Diag. 0.10E+00    2.9     0.00011995        -1.1689349836  1.40E-04
    34 Broy./Diag. 0.10E+00    2.9     0.00014058        -1.1688879595  4.70E-05
    35 Broy./Diag. 0.10E+00    3.0     0.00014750        -1.1689251545 -3.72E-05
    36 Broy./Diag. 0.10E+00    2.9     0.00007152        -1.1689134605  1.17E-05
    37 Broy./Diag. 0.10E+00    2.9     0.00005060        -1.1689169490 -3.49E-06
    38 Broy./Diag. 0.10E+00    2.9     0.00001327        -1.1689406590 -2.37E-05
    39 Broy./Diag. 0.10E+00    2.9     0.00001964        -1.1689016539  3.90E-05
    40 Broy./Diag. 0.10E+00    2.9     0.00001560        -1.1689113915 -9.74E-06
    41 Broy./Diag. 0.10E+00    2.9     0.00000364        -1.1689163333 -4.94E-06
    42 Broy./Diag. 0.10E+00    3.0     0.00001169        -1.1689001780  1.62E-05
    43 Broy./Diag. 0.10E+00    3.0     0.00002350        -1.1689159089 -1.57E-05
    44 Broy./Diag. 0.10E+00    3.0     0.00000400        -1.1689250710 -9.16E-06
    45 Broy./Diag. 0.10E+00    2.9     0.00002004        -1.1689109790  1.41E-05
    46 Broy./Diag. 0.10E+00    2.9     0.00000614        -1.1689172464 -6.27E-06
    47 Broy./Diag. 0.10E+00    2.9     0.00000291        -1.1689223198 -5.07E-06
    48 Broy./Diag. 0.10E+00    2.9     0.00000314        -1.1689203397  1.98E-06
    49 Broy./Diag. 0.10E+00    2.9     0.00000454        -1.1689206322 -2.92E-07
    50 Broy./Diag. 0.10E+00    2.9     0.00000446        -1.1689236697 -3.04E-06
    51 Broy./Diag. 0.10E+00    2.9     0.00000059        -1.1689233248  3.45E-07

  *** SCF run converged in    51 steps ***


  Electronic density on regular grids:         -1.9779308218        0.0220691782
  Core density on regular grids:                2.0000000000       -0.0000000000
  Hard and soft densities (Lebedev):           -8.3318263743       -8.3097568462
  Total Rho_soft + Rho1_hard - Rho1_soft       -2.0000003498
  Total charge density (r-space):              -0.0000003498
  Total Rho_soft + Rho0_soft (g-space):        -0.0000003561

  Overlap energy of the core charge distribution:               0.00000051136925
  Self energy of the core charge distribution:                 -2.82094791773878
  Core Hamiltonian energy:                                      0.97979870316673
  Hartree energy:                                               1.09270452580926
  Exchange-correlation energy:                                 -0.51734930020899
  Hartree-Fock Exchange energy:                                -0.16454065281461

  GAPW| Exc from hard and soft atomic rho1:                    -0.01206917663946
  GAPW| local Eh = 1 center integrals:                          0.27347998226900

  Total energy:                                                -1.16892332478761

 !-----------------------------------------------------------------------------!
                     Mulliken Population Analysis

 #  Atom  Element  Kind  Atomic population                           Net charge
       1     H        1          1.000000                             -0.000000
       2     H        1          1.000000                              0.000000
 # Total charge                              2.000000                 -0.000000

 !-----------------------------------------------------------------------------!

 !-----------------------------------------------------------------------------!
                           Hirshfeld Charges

  #Atom  Element  Kind  Ref Charge     Population                    Net charge
      1       H      1       1.000          0.933                         0.067
      2       H      1       1.000          0.933                         0.067

  Total Charge                                                            0.135
 !-----------------------------------------------------------------------------!


 RI-RPA section
 --------------

  Used number of processes per group:                                          1
  Maximum allowed memory usage per MPI process:                      1024.00 MiB
  RI_INFO| Cholesky decomposition group size:                                  4
  RI_INFO| Number of groups for auxiliary basis functions                     48

  RI_INFO| RI metric:                                                    COULOMB
  RI_INFO| Number of auxiliary basis functions:                              126
  GENERAL_INFO| Number of basis functions:                                    92
  GENERAL_INFO| Number of occupied orbitals:                                   1
  GENERAL_INFO| Number of virtual orbitals:                                   91
  RI_INFO| Total memory for (ia|K) integrals:                           0.09 MiB
  RI_INFO| Total memory for G0W0-(nm|K) integrals:                      8.14 MiB
  RI_INFO| Total memory for (ij|K) integrals:                           0.00 MiB
  RI_INFO| Total memory for (ab|K) integrals:                           7.96 MiB
  RI_INFO| Group size for frequency integration:                              48
  INTEG_INFO| Clenshaw-Curtius quadrature
  INTEG_INFO| Number of integration points:                                  100
  INTEG_INFO| Number of integration points per RPA group:                    100
  MATRIX_INFO| Number row processes:                                           8
  MATRIX_INFO| Number column processes:                                        6
  MATRIX_INFO| Row block size:                                                 7
  MATRIX_INFO| Column block size:                                              7
  INTEG_INFO| Scaling parameter:                                         0.20000
  INTEG_INFO| Started with Integration point   1 of 100
  INTEG_INFO| Started with Integration point   2 of 100
  INTEG_INFO| Started with Integration point   3 of 100
  INTEG_INFO| Started with Integration point   4 of 100
  INTEG_INFO| Started with Integration point   5 of 100
  INTEG_INFO| Started with Integration point   6 of 100
  INTEG_INFO| Started with Integration point   7 of 100
  INTEG_INFO| Started with Integration point   8 of 100
  INTEG_INFO| Started with Integration point   9 of 100
  INTEG_INFO| Started with Integration point  10 of 100
  INTEG_INFO| Started with Integration point  11 of 100
  INTEG_INFO| Started with Integration point  12 of 100
  INTEG_INFO| Started with Integration point  13 of 100
  INTEG_INFO| Started with Integration point  14 of 100
  INTEG_INFO| Started with Integration point  15 of 100
  INTEG_INFO| Started with Integration point  16 of 100
  INTEG_INFO| Started with Integration point  17 of 100
  INTEG_INFO| Started with Integration point  18 of 100
  INTEG_INFO| Started with Integration point  19 of 100
  INTEG_INFO| Started with Integration point  20 of 100
  INTEG_INFO| Started with Integration point  21 of 100
  INTEG_INFO| Started with Integration point  22 of 100
  INTEG_INFO| Started with Integration point  23 of 100
  INTEG_INFO| Started with Integration point  24 of 100
  INTEG_INFO| Started with Integration point  25 of 100
  INTEG_INFO| Started with Integration point  26 of 100
  INTEG_INFO| Started with Integration point  27 of 100
  INTEG_INFO| Started with Integration point  28 of 100
  INTEG_INFO| Started with Integration point  29 of 100
  INTEG_INFO| Started with Integration point  30 of 100
  INTEG_INFO| Started with Integration point  31 of 100
  INTEG_INFO| Started with Integration point  32 of 100
  INTEG_INFO| Started with Integration point  33 of 100
  INTEG_INFO| Started with Integration point  34 of 100
  INTEG_INFO| Started with Integration point  35 of 100
  INTEG_INFO| Started with Integration point  36 of 100
  INTEG_INFO| Started with Integration point  37 of 100
  INTEG_INFO| Started with Integration point  38 of 100
  INTEG_INFO| Started with Integration point  39 of 100
  INTEG_INFO| Started with Integration point  40 of 100
  INTEG_INFO| Started with Integration point  41 of 100
  INTEG_INFO| Started with Integration point  42 of 100
  INTEG_INFO| Started with Integration point  43 of 100
  INTEG_INFO| Started with Integration point  44 of 100
  INTEG_INFO| Started with Integration point  45 of 100
  INTEG_INFO| Started with Integration point  46 of 100
  INTEG_INFO| Started with Integration point  47 of 100
  INTEG_INFO| Started with Integration point  48 of 100
  INTEG_INFO| Started with Integration point  49 of 100
  INTEG_INFO| Started with Integration point  50 of 100
  INTEG_INFO| Started with Integration point  51 of 100
  INTEG_INFO| Started with Integration point  52 of 100
  INTEG_INFO| Started with Integration point  53 of 100
  INTEG_INFO| Started with Integration point  54 of 100
  INTEG_INFO| Started with Integration point  55 of 100
  INTEG_INFO| Started with Integration point  56 of 100
  INTEG_INFO| Started with Integration point  57 of 100
  INTEG_INFO| Started with Integration point  58 of 100
  INTEG_INFO| Started with Integration point  59 of 100
  INTEG_INFO| Started with Integration point  60 of 100
  INTEG_INFO| Started with Integration point  61 of 100
  INTEG_INFO| Started with Integration point  62 of 100
  INTEG_INFO| Started with Integration point  63 of 100
  INTEG_INFO| Started with Integration point  64 of 100
  INTEG_INFO| Started with Integration point  65 of 100
  INTEG_INFO| Started with Integration point  66 of 100
  INTEG_INFO| Started with Integration point  67 of 100
  INTEG_INFO| Started with Integration point  68 of 100
  INTEG_INFO| Started with Integration point  69 of 100
  INTEG_INFO| Started with Integration point  70 of 100
  INTEG_INFO| Started with Integration point  71 of 100
  INTEG_INFO| Started with Integration point  72 of 100
  INTEG_INFO| Started with Integration point  73 of 100
  INTEG_INFO| Started with Integration point  74 of 100
  INTEG_INFO| Started with Integration point  75 of 100
  INTEG_INFO| Started with Integration point  76 of 100
  INTEG_INFO| Started with Integration point  77 of 100
  INTEG_INFO| Started with Integration point  78 of 100
  INTEG_INFO| Started with Integration point  79 of 100
  INTEG_INFO| Started with Integration point  80 of 100
  INTEG_INFO| Started with Integration point  81 of 100
  INTEG_INFO| Started with Integration point  82 of 100
  INTEG_INFO| Started with Integration point  83 of 100
  INTEG_INFO| Started with Integration point  84 of 100
  INTEG_INFO| Started with Integration point  85 of 100
  INTEG_INFO| Started with Integration point  86 of 100
  INTEG_INFO| Started with Integration point  87 of 100
  INTEG_INFO| Started with Integration point  88 of 100
  INTEG_INFO| Started with Integration point  89 of 100
  INTEG_INFO| Started with Integration point  90 of 100
  INTEG_INFO| Started with Integration point  91 of 100
  INTEG_INFO| Started with Integration point  92 of 100
  INTEG_INFO| Started with Integration point  93 of 100
  INTEG_INFO| Started with Integration point  94 of 100
  INTEG_INFO| Started with Integration point  95 of 100
  INTEG_INFO| Started with Integration point  96 of 100
  INTEG_INFO| Started with Integration point  97 of 100
  INTEG_INFO| Started with Integration point  98 of 100
  INTEG_INFO| Started with Integration point  99 of 100
  INTEG_INFO| Started with Integration point 100 of 100
  PERFORMANCE| Average DGEMM flop rate (Gflops / MPI rank):                 0.06
  
  
  ******************************************************************************
  **                                                                          **
  **                        GW QUASIPARTICLE ENERGIES                         **
  **                                                                          **
  ******************************************************************************
   
   
  The GW quasiparticle energies are calculated according to: 
   
                      E_GW = E_SCF + Sigc(E_GW) + Sigx - vxc 
   
  Upper equation is solved self-consistently for E_GW, see Eq. (12) in J. Phys.
  Chem. Lett. 9, 306 (2018), doi: 10.1021/acs.jpclett.7b02740
  
  
  ------------
  G0W0 results
  ------------
   
  Molecular orbital   E_SCF (eV)       Sigc (eV)   Sigx-vxc (eV)       E_GW (eV)
     1 ( occ )          -12.0015         -0.0113         -4.1646        -16.1774
     2 ( vir )            0.6665         -0.1716          1.0292          1.5241
     3 ( vir )            0.7064         -0.0970          0.6621          1.2715
     4 ( vir )            2.7523         -0.3316          1.5752          3.9959
     5 ( vir )            2.8822         -0.3255          1.9351          4.4919
     6 ( vir )            2.8822         -0.3255          1.9351          4.4919
     7 ( vir )            5.1368         -0.2005          1.1539          6.0902
     8 ( vir )            5.3523         -0.1400          1.0460          6.2583
     9 ( vir )            5.3523         -0.1400          1.0460          6.2583
    10 ( vir )            7.0350         -0.4168          1.8267          8.4449
    11 ( vir )            7.8809         -0.5097          1.9622          9.3334
    12 ( vir )           13.7245         -0.7460          2.6501         15.6286
    13 ( vir )           13.7245         -0.7459          2.6501         15.6287
    14 ( vir )           14.5947         -0.4978          2.0397         16.1365
    15 ( vir )           15.5975         -0.7807          3.5813         18.3981
    16 ( vir )           15.5975         -0.7404          3.5813         18.4384
    17 ( vir )           15.8684         -1.2269          2.1644         16.8059
    18 ( vir )           15.8684         -1.3195          2.1644         16.7134
    19 ( vir )           16.2752         -0.5552          2.4418         18.1618
    20 ( vir )           17.4183         -0.3706          1.9093         18.9570
    21 ( vir )           17.4183         -0.3744          1.9093         18.9531
    22 ( vir )           17.7578         -0.8147          2.0849         19.0279
    23 ( vir )           17.7578         -0.8452          2.0849         18.9974
    24 ( vir )           19.4030         -1.0491          2.8836         21.2375
    25 ( vir )           26.7847         -1.2818          3.6652         29.1682
    26 ( vir )           35.6234         -1.7867          3.5789         37.4156
    27 ( vir )           35.6234         -1.8842          3.5789         37.3181
    28 ( vir )           37.6366         -0.5041          3.6388         40.7714
    29 ( vir )           37.6366         -0.6223          3.6388         40.6532
    30 ( vir )           39.3162         -0.6749          3.4255         42.0669
    31 ( vir )           42.9211         -0.9937          4.7396         46.6670
    32 ( vir )           45.6265         -2.0456          4.9587         48.5395
    33 ( vir )           45.8253         -0.4855          3.2823         48.6221
    34 ( vir )           45.8253         -0.6240          3.2823         48.4836
    35 ( vir )           45.9292         -0.4187          3.3936         48.9041
    36 ( vir )           45.9292         -0.1636          3.3936         49.1592
    37 ( vir )           46.0982         -0.4738          3.1604         48.7848
    38 ( vir )           46.0982         -0.4358          3.1604         48.8228
    39 ( vir )           46.7904         -0.3686          3.8260         50.2479
    40 ( vir )           46.7904         -0.1798          3.8260         50.4366
    41 ( vir )           46.8433         -0.9397          3.6571         49.5608
    42 ( vir )           47.7928         -0.1991          3.2504         50.8442
    43 ( vir )           47.7928         -0.1814          3.2504         50.8618
    44 ( vir )           57.8158         -3.0178          6.4286         61.2266
    45 ( vir )           57.8158         -0.6332          6.4286         63.6112
    46 ( vir )           59.6351         -1.3016          3.0849         61.4184
    47 ( vir )           59.7296         -1.1749          5.4225         63.9772
    48 ( vir )           59.7296         -0.6559          5.4225         64.4963
    49 ( vir )           69.0216         -2.5442          5.9112         72.3886
    50 ( vir )           77.7760         -2.1525          5.4633         81.0867
    51 ( vir )           77.7760         -1.8504          5.4633         81.3888
    52 ( vir )           89.0784         -1.4948          5.7478         93.3314
    53 ( vir )           90.5556         -2.4295          5.7819         93.9080
    54 ( vir )           90.5556         -2.1515          5.7819         94.1860
    55 ( vir )           94.5612         -1.8029          5.6413         98.3997
    56 ( vir )           94.5612         -1.8473          5.6413         98.3552
    57 ( vir )          107.8355          4.7902          7.5196        120.1453
    58 ( vir )          109.5718         -4.6790          6.0711        110.9639
    59 ( vir )          115.8932         -2.6972          6.1976        119.3935
    60 ( vir )          115.8932         -3.0653          6.1976        119.0254
    61 ( vir )          152.7734          6.8294          8.9242        168.5270
    62 ( vir )          162.0572         -8.8491          7.9284        161.1364
    63 ( vir )          162.0572         -7.7945          7.9284        162.1910
    64 ( vir )          170.2652         -8.8357          8.5758        170.0054
    65 ( vir )          170.2652        -10.5133          8.5758        168.3277
    66 ( vir )          184.8877          5.2857          9.8106        199.9840
    67 ( vir )          184.8877          7.5185          9.8106        202.2168
    68 ( vir )          187.2103          5.1455          7.7600        200.1157
    69 ( vir )          187.2103          5.1406          7.7600        200.1108
    70 ( vir )          200.5056          3.9487          9.9237        214.3780
    71 ( vir )          201.3560        -13.9094          7.4896        194.9363
    72 ( vir )          201.3560        -14.3634          7.4896        194.4823
    73 ( vir )          206.8386         -8.5797          7.4700        205.7289
    74 ( vir )          206.8386         -8.5808          7.4700        205.7278
    75 ( vir )          210.5243        -10.6280          7.5367        207.4331
    76 ( vir )          219.1941          4.7104          9.1637        233.0682
    77 ( vir )          219.1941          4.7425          9.1637        233.1002
    78 ( vir )          220.2480          4.6003          8.3816        233.2298
    79 ( vir )          220.2480          4.6036          8.3816        233.2332
    80 ( vir )          225.3076          6.4505          9.4658        241.2239
    81 ( vir )          236.4483          3.6182          9.1452        249.2117
    82 ( vir )          238.4311          4.7686          9.7143        252.9140
    83 ( vir )          238.4311          4.1783          9.7143        252.3238
[...]
 Efficient and Massively Parallel Gaussian and Plane Waves Approach.
 https://doi.org/10.1021/ct300531w

 M. Guidon, J. Hutter, J. VandeVondele.
 J. Chem. Theory Comput. 5, 3010-3021 (2009).
 Robust Periodic Hartree-Fock Exchange for Large-Scale Simulations Using 
 Gaussian Basis Sets.
 https://doi.org/10.1021/ct900494g

 M. Guidon, F. Schiffmann, J. Hutter, J. VandeVondele.
 J. Chem. Phys. 128, 214104 (2008).
 Ab initio molecular dynamics using hybrid density functionals.
 https://doi.org/10.1063/1.2931945

 L. Genovese, T. Deutsch, S. Goedecker.
 J. Chem. Phys. 127, 054704 (2007).
 Efficient and accurate three-dimensional Poisson solver for surface problems.
 https://doi.org/10.1063/1.2754685

 J. VandeVondele, J. Hutter.
 J. Chem. Phys. 127, 114105 (2007).
 Gaussian basis sets for accurate calculations on molecular systems in gas and 
 condensed phases.
 https://doi.org/10.1063/1.2770708

 L. Genovese, T. Deutsch, A. Neelov, S. Goedecker, G. Beylkin.
 J. Chem. Phys. 125, 074105 (2006).
 Efficient solution of Poisson's equation with free boundary conditions.
 https://doi.org/10.1063/1.2335442

 M. Frigo, S. G. Johnson.
 Proc. IEEE 93, 216-231 (2005).
 The design and implementation of FFTW3.
 https://doi.org/10.1109/JPROC.2004.840301

 M. Krack, M. Parrinello.
 Phys. Chem. Chem. Phys. 2, 2105-2112 (2000).
 All-electron ab-initio molecular dynamics.
 https://doi.org/10.1039/b001167n

 G. Lippert, J. Hutter, M. Parrinello.
 Theor. Chem. Acc. 103, 124-140 (1999).
 The Gaussian and augmented-plane-wave density functional method for ab initio 
 molecular dynamics simulations.
 https://doi.org/10.1007/s002140050523

 J. P. Perdew, K. Burke, M. Ernzerhof.
 Phys. Rev. Lett. 77, 3865-3868 (1996).
 Generalized gradient approximation made simple.
 https://doi.org/10.1103/PhysRevLett.77.3865


 -------------------------------------------------------------------------------
 -                                                                             -
 -                                T I M I N G                                  -
 -                                                                             -
 -------------------------------------------------------------------------------
 SUBROUTINE                       CALLS  ASD         SELF TIME        TOTAL TIME
                                MAXIMUM       AVERAGE  MAXIMUM  AVERAGE  MAXIMUM
 CP2K                                 1  1.0    0.044    0.072  156.310  156.311
 qs_energies                          1  2.0    0.001    0.001  155.126  155.374
 scf_env_do_scf                       1  3.0    0.000    0.000  150.950  150.951
 scf_env_do_scf_inner_loop           51  4.0    0.001    0.003  150.950  150.950
 qs_ks_build_kohn_sham_matrix        52  7.0    0.008    0.009  115.507  115.513
 qs_ks_update_qs_env                 51  5.0    0.000    0.000  114.086  114.091
 rebuild_ks_matrix                   51  6.0    0.000    0.000  114.082  114.087
 fft_wrap_pw1pw2                   1083  9.9    0.024    0.034   61.631   62.447
 fft_wrap_pw1pw2_250                771 11.1    2.648    2.990   59.606   60.206
 fft3d_ps                          1083 11.9   24.375   26.924   49.706   50.395
 pw_poisson_solve                    52  8.0    0.927    1.021   45.288   45.305
 qs_vxc_create                       52  8.0    0.001    0.001   36.818   36.819
 xc_vxc_pw_create                    51  9.0    0.640    0.711   36.817   36.818
 ps_wavelet_solve                    52  9.0   23.411   26.275   29.957   30.186
 xc_pw_derive                       306 11.0    0.003    0.004   26.774   27.408
 mp_alltoall_d54                     52 10.0    4.270   23.336    4.270   23.336
 mp_alltoall_z22v                  1083 13.9   19.480   21.891   19.480   21.891
 qs_rho_update_rho_low               52  5.0    0.001    0.001   19.227   19.227
 calculate_rho_elec                  52  6.0    0.508    0.542   19.167   19.167
 xc_pw_divergence                    51 10.0    0.002    0.002   18.033   18.669
 xc_rho_set_and_dset_create          51 10.0    0.461    0.624   17.768   18.439
 gspace_mixing                       50  5.0    0.488    0.521   17.470   17.470
 x_to_yz                            566 13.1    4.115    4.451   13.543   14.136
 density_rs2pw                       52  7.0    0.003    0.004   13.476   13.841
 yz_to_x                            517 12.8    1.718    2.092   11.770   13.736
 broyden_mixing                      50  6.0   12.820   13.091   13.083   13.138
 sum_up_and_integrate                52  8.0    0.001    0.001   11.501   11.528
 integrate_v_rspace                  52  9.0    0.001    0.002   11.353   11.436
 potential_pw2rs                     52 10.0    0.027    0.031   10.132   10.206
 prepare_gapw_den                    52  8.0    0.001    0.001    7.848    7.981
 put_rho0_on_grid                    52  9.0    0.511    0.548    7.422    7.554
 transfer_pw2rs                     261 10.5    0.004    0.005    7.344    7.456
 transfer_rs2pw                     261  8.4    0.007    0.010    6.488    6.786
 mp_waitany                        6908 11.5    5.569    6.338    5.569    6.338
 grid_collocate_task_list            52  7.0    4.980    5.694    4.980    5.694
 hfx_ks_matrix                       52  8.0    0.002    0.002    5.568    5.625
 integrate_four_center               52  9.0    1.133    2.408    5.565    5.622
 mp_alltoall_d11v                   976  9.5    3.004    5.350    3.004    5.350
 transfer_pw2rs_250                 105 10.9    1.595    1.734    4.905    5.125
 transfer_rs2pw_250                 105 10.0    1.790    1.936    4.575    4.937
 mp_sync                            677  9.3    3.242    4.480    3.242    4.480
 xc_functional_eval                 153 10.9    0.000    0.001    3.785    4.280
 pbe_lda_eval                       153 11.9    3.785    4.280    3.785    4.280
 mp_alltoall_d45                     53 10.0    2.142    4.230    2.142    4.230
 pw_scatter_p                       566 12.1    4.042    4.089    4.042    4.089
 pw_gather_p                        517 11.8    3.396    3.867    3.396    3.867
 mp2_main                             1  3.0    0.000    0.000    3.149    3.398
 integrate_vhg0_rspace               52  8.0    0.037    0.046    3.192    3.198
 pw_derive                          462 11.3    2.969    3.165    2.969    3.165
 integrate_four_center_main          52 10.0    0.048    1.689    0.110    2.630
 mp_sum_d                          2613  6.3    1.908    2.609    1.908    2.609
 integrate_four_center_bin         4170 11.0    0.061    2.346    0.061    2.346
 pw_copy                            775 10.6    1.762    1.875    1.762    1.875
 fft_wrap_pw1pw2_90                 104 10.5    0.076    0.100    1.616    1.844
 cp2k_distribution_to_z_slices       52  9.0    0.966    1.027    1.696    1.817
 pw_poisson_set                      53  8.9    0.002    0.002    1.654    1.671
 mp2_gpw_main                         1  4.0    0.000    0.000    1.517    1.527
 rs_grid_zero                       262 11.1    1.451    1.490    1.451    1.490
 compute_vec_Sigma_x_minus_vxc_       1  4.0    0.000    0.000    1.429    1.429
 rpa_ri_compute_en                    1  5.0    0.000    0.000    1.346    1.346
 rpa_num_int                          1  6.0    0.001    0.001    1.338    1.338
 transfer_pw2rs_90                   52 12.0    0.253    0.298    0.998    1.298
 pw_axpy                            515  9.3    1.149    1.243    1.149    1.243
 rs_gather_matrices                  52 10.0    0.005    0.006    1.132    1.223
 grid_integrate_task_list            52 10.0    0.088    1.208    0.088    1.208
 transfer_pw2rs_30                   52 12.0    0.706    0.758    1.074    1.158
 pw_copy_to_array                   517 11.8    1.040    1.149    1.040    1.149
 pw_poisson_rebuild                  52  9.0    0.000    0.000    1.119    1.146
 ps_wavelet_create                    1 10.0    0.000    0.000    1.119    1.146
 RS_z_slice_distribution              1 11.0    0.994    1.049    1.119    1.146
 compute_GW_self_energy             100  7.0    0.001    0.001    1.128    1.140
 mp_waitall_1                     16206 12.0    0.843    1.115    0.843    1.115
 compute_GW_self_energy_deep        100  8.0    0.864    0.874    1.062    1.074
 pw_integral_ab_c1d_c1d_gs           52  9.0    0.764    0.772    0.845    0.923
 transfer_rs2pw_90                   52  9.0    0.224    0.248    0.809    0.918
 pw_copy_from_array                 566 12.1    0.684    0.852    0.684    0.852
 transfer_rs2pw_30                   52  9.0    0.409    0.428    0.834    0.848
 mp_sum_dm                          368  7.6    0.444    0.817    0.444    0.817
 calc_screening_functions             1 10.0    0.564    0.650    0.716    0.806
 calculate_vxc_atom                  52  8.0    0.011    0.139    0.725    0.726
 mp_sendrecv_dv                    4888 10.0    0.604    0.633    0.604    0.633
 init_scf_run                         1  3.0    0.000    0.000    0.624    0.625
 scf_env_initial_rho_setup            1  4.0    0.000    0.000    0.612    0.612
 qs_scf_new_mos                      51  5.0    0.001    0.001    0.606    0.609
 gaVxcgb_GC                          51  9.0    0.023    0.551    0.023    0.551
 pw_zero                            308 10.3    0.496    0.549    0.496    0.549
 mp_isend_dv                       6748 11.8    0.333    0.536    0.333    0.536
 mp_isend_dm3                      1884 11.5    0.245    0.460    0.245    0.460
 cp_fm_syevd                         57  6.9    0.000    0.000    0.435    0.437
 qs_init_subsys                       1  2.0    0.004    0.004    0.434    0.434
 eigensolver_symm                    52  6.0    0.002    0.002    0.425    0.426
 qs_env_setup                         1  3.0    0.000    0.000    0.424    0.425
 mp_sum_i                            19  9.5    0.250    0.424    0.250    0.424
 qs_env_rebuild_pw_env                2  3.5    0.000    0.000    0.423    0.424
 restraint_control                    1  2.0    0.000    0.000    0.249    0.424
 mp2_main_alloc_hfx                   1  4.0    0.174    0.424    0.174    0.424
 pw_env_rebuild                       1  5.0    0.001    0.001    0.422    0.423
 pw_grid_setup                        4  6.0    0.000    0.000    0.413    0.414
 pw_grid_setup_internal               4  7.0    0.010    0.013    0.413    0.414
 mp_sum_dv                         5662 10.5    0.335    0.407    0.335    0.407
 cp_fm_redistribute_end              57  7.9    0.210    0.396    0.211    0.397
 create_qs_kind_set                   1  2.0    0.000    0.000    0.392    0.393
 calculate_rho_atom                  52  9.0    0.133    0.393    0.133    0.393
 read_qs_kind                         1  3.0    0.212    0.217    0.392    0.393
 transfer_pw2rs_10                   52 12.0    0.178    0.191    0.363    0.390
 mp_irecv_dm3                      1884 11.5    0.241    0.386    0.241    0.386
 mp_isendrecv_dv                   9776 12.0    0.175    0.381    0.175    0.381
 cp_fm_syevd_base                    57  7.9    0.185    0.371    0.185    0.371
 fft_wrap_pw1pw2_30                 104 10.5    0.013    0.014    0.310    0.327
 pw_grid_sort                         4  8.0    0.222    0.225    0.317    0.321
 Vh_1c_gg_integrals                  52  8.0    0.006    0.076    0.195    0.293
 qs_energies_init_hamiltonians        1  3.0    0.000    0.000    0.286    0.286
 build_core_hamiltonian_matrix        1  4.0    0.000    0.000    0.281    0.281
 overlap_condnum                      1  5.0    0.000    0.001    0.279    0.279
 scale_and_distribute               104 10.0    0.260    0.278    0.260    0.278
 transfer_rs2pw_10                   52  9.0    0.085    0.092    0.263    0.276
 mp_max_i                           530  2.7    0.170    0.268    0.170    0.268
 parallel_gemm_fm                   322  8.7    0.000    0.000    0.260    0.264
 parallel_gemm_fm_gemm              322  9.7    0.000    0.000    0.260    0.264
 cp_fm_gemm                         322 10.7    0.259    0.263    0.259    0.263
 arnoldi_conjugate_gradient           8  6.0    0.007    0.008    0.246    0.246
 powell_optimize                  96987 11.0    0.240    0.246    0.240    0.246
 parser_read_line                 45106  4.0    0.016    0.018    0.180    0.183
 pw_scale                           205  9.5    0.136    0.174    0.136    0.174
 parser_read_line_low                50  5.0    0.014    0.071    0.164    0.168
 broadcast_input_information         50  6.0    0.037    0.041    0.150    0.160
 mp2_ri_gpw_compute_in                1  5.0    0.000    0.000    0.156    0.156
 mixing_init                          1  5.0    0.146    0.152    0.151    0.152
 mp2_ri_gpw_compute_in_loop           1  6.0    0.000    0.000    0.151    0.151
 rpa_num_int_RPA_matrix_operati     100  7.0    0.001    0.002    0.145    0.145
 dbcsr_sym_matrix_vector_mult       966  7.0    0.015    0.016    0.104    0.144
 calc_pair_dist_radii                 1 10.0    0.047    0.048    0.135    0.138
 contract_B_L                         4  7.0    0.001    0.001    0.120    0.137
 calculate_dm_sparse                 51  6.0    0.000    0.000    0.130    0.133
 mp_sum_l                           820  5.6    0.110    0.133    0.110    0.133
 cp_dbcsr_plus_fm_fm_t               51  7.0    0.001    0.001    0.129    0.133
 integrate_four_center_load          52 10.0    0.000    0.001    0.096    0.117
 integrate_four_center_getP          52 10.0    0.004    0.005    0.112    0.117
 hfx_load_balance                     1 11.0    0.000    0.000    0.095    0.117
 scf_post_calculation_gpw             1  3.0    0.000    0.000    0.115    0.115
 write_available_results              1  4.0    0.000    0.000    0.114    0.115
 write_mo_free_results                1  5.0    0.013    0.014    0.114    0.114
 hfx_load_balance_range               1 12.0    0.000    0.001    0.091    0.113
 dbcsr_multiply_generic              80  8.1    0.004    0.004    0.097    0.101
 sort_shells                          4  9.0    0.095    0.097    0.095    0.097
 integrate_four_center_dist_KS       52 10.0    0.005    0.006    0.093    0.094
 calc_mat_Q                         100  8.0    0.000    0.000    0.089    0.092
 contract_S_to_Q                    100  9.0    0.000    0.000    0.088    0.091
 fft_wrap_pw1pw2_10                 104 10.5    0.003    0.003    0.076    0.090
 dbcsr_complete_redistribute        180  8.4    0.007    0.011    0.084    0.085
 dbcsr_add_d                       1479  7.1    0.001    0.002    0.012    0.085
 dbcsr_add_anytype                 1479  8.1    0.002    0.011    0.010    0.083
 copy_dbcsr_to_fm                    74  6.5    0.001    0.002    0.072    0.076
 dbt_total                            8  8.0    0.000    0.000    0.075    0.075
 xc_pw_smooth                        51 10.0    0.000    0.000    0.053    0.074
 mp_bcast_i_src                     200  7.0    0.059    0.072    0.059    0.072
 dbt_contract                         4  9.0    0.001    0.001    0.065    0.070
 mp_bcast_am_src                     50  7.0    0.047    0.055    0.052    0.066
 mp_cart_create                     271 10.9    0.048    0.065    0.048    0.065
 cp_fm_to_fm_submat_general         112 10.1    0.061    0.064    0.061    0.064
 dbcsr_finalize                    2458 10.6    0.005    0.021    0.018    0.064
 cp_fm_cholesky_invert              101  8.0    0.057    0.060    0.057    0.060
 calculate_rho_atom_coeff            52  6.0    0.004    0.013    0.059    0.060
 calculate_hirshfeld_normalizat       1  6.0    0.000    0.000    0.051    0.052
 dbt_pgrid_create_expert             80 10.7    0.000    0.000    0.035    0.052
 pw_grid_assign                       4  8.0    0.050    0.051    0.051    0.052
 dbcsr_col_vec_to_rep_row           966  8.0    0.007    0.008    0.023    0.051
 compute_Erpa_by_freq_int           100  8.0    0.001    0.001    0.050    0.050
 copy_fm_to_dbcsr                   106  8.1    0.000    0.000    0.047    0.049
 hirshfeld_integration                1  6.0    0.000    0.001    0.049    0.049
 make_m2s                           160  9.1    0.003    0.003    0.046    0.049
 start_bse_calculation                1  7.0    0.000    0.000    0.049    0.049
 dbt_tas_multiply                     8 11.5    0.000    0.000    0.048    0.049
 dbt_tas_total                        8 12.5    0.001    0.002    0.048    0.048
 cp_fm_cholesky_decompose           102  9.0    0.048    0.048    0.048    0.048
 mp2_eri_3c_integrate                 1  7.0    0.001    0.001    0.017    0.043
 cp_fm_redistribute_start            57  7.9    0.031    0.033    0.039    0.042
 integrate_set_3c                   576  8.0    0.015    0.038    0.017    0.042
 dbcsr_desymmetrize_deep             76  7.5    0.002    0.002    0.038    0.041
 dbcsr_rep_row_to_rep_col_vec       966  8.0    0.005    0.006    0.014    0.037
 multiply_cannon                     80  9.1    0.006    0.006    0.033    0.036
 mp_bcast_dv                       1023  9.0    0.009    0.035    0.009    0.035
 mp_irecv_dv                       6719 11.8    0.023    0.035    0.023    0.035
 calculate_rho0_atom                 52  9.0    0.031    0.032    0.031    0.032
 diagonalize_C                        1  8.0    0.000    0.000    0.032    0.032
 offload_free_buffer                 60  8.2    0.026    0.031    0.026    0.031
 vxc_of_r_new                       102  9.0    0.000    0.005    0.001    0.030
 dbcsr_merge_all                   1944 11.4    0.007    0.025    0.009    0.030
 mp_comm_split_direct                48 14.5    0.019    0.029    0.019    0.029
 dbcsr_iterator_start             13106  8.9    0.016    0.024    0.019    0.028
 dbcsr_copy                        4325  7.6    0.015    0.016    0.025    0.027
 cp_fm_power                          2  7.5    0.000    0.000    0.026    0.026
 mp_alltoall_i11v                   616  9.3    0.025    0.025    0.025    0.025
 mp2_main_free_hfx                    1  4.0    0.010    0.024    0.010    0.024
 make_images                        160 10.1    0.005    0.005    0.022    0.024
 postprocess_bse                      1  9.0    0.000    0.000    0.023    0.024
 hybrid_alltoall_any                236 10.9    0.002    0.003    0.022    0.023
 mp_maxloc_dv                      1519  1.0    0.021    0.023    0.021    0.023
 multiply_cannon_loop                80 10.1    0.004    0.005    0.019    0.022
 update_ks_atom                      52  8.0    0.003    0.009    0.015    0.021
 dbt_tas_estimate_result_nze          4 12.0    0.000    0.001    0.020    0.020
 pw_grid_remap                        4  8.0    0.008    0.008    0.016    0.020
 mp_alltoall_i22                    256  9.2    0.016    0.019    0.016    0.019
 dbcsr_create_new                  5944  9.1    0.014    0.014    0.018    0.019
 dbt_distribution_new_expert         72 10.0    0.001    0.001    0.018    0.019
 dbcsr_iterator_stop              13106  8.9    0.012    0.016    0.014    0.018
 dbt_tas_distribution_new            96 11.9    0.010    0.010    0.017    0.017
 dbcsr_sym_matrix_vector_mult_l     966  8.0    0.004    0.013    0.007    0.016
 dbcsr_crop_matrix                  204 10.0    0.001    0.002    0.015    0.016
 -------------------------------------------------------------------------------

 The number of warnings for this run is : 1
 
 -------------------------------------------------------------------------------
  **** **** ******  **  PROGRAM ENDED AT                 2025-03-18 23:32:42.618
 ***** ** ***  *** **   PROGRAM RAN ON                              i02r03c04s05
 **    ****   ******    PROGRAM RAN BY                                   di38fab
 ***** **    ** ** **   PROGRAM PROCESS ID                               1494419
  **** **  *******  **  PROGRAM STOPPED IN /hppfs/scratch/04/di38fab/05_MOL/W4-1
                                           1+ALK/h2/aug-cc-pVQZ/GW+BSE
