 DBCSR| CPU Multiplication driver                                           BLAS (U)
 DBCSR| Multrec recursion limit                                              512 (U)
 DBCSR| Multiplication stack size                                           1000 (D)
 DBCSR| Maximum elements for images                                    UNLIMITED (U)
 DBCSR| Multiplicative factor virtual images                                   1 (U)
 DBCSR| Use multiplication densification                                       T (D)
 DBCSR| Multiplication size stacks                                             3 (U)
 DBCSR| Use memory pool for CPU allocation                                     F (U)
 DBCSR| Number of 3D layers                                               SINGLE (U)
 DBCSR| Use MPI memory allocation                                              F (U)
 DBCSR| Use RMA algorithm                                                      F (U)
 DBCSR| Use Communication thread                                               T (U)
 DBCSR| Communication thread load                                             75 (D)
 DBCSR| MPI: My process id                                                     0
 DBCSR| MPI: Number of processes                                              24
 DBCSR| OMP: Current number of threads                                         4
 DBCSR| OMP: Max number of threads                                             4
 DBCSR| Split modifier for TAS multiplication algorithm                  1.0E+00 (U)


  **** **** ******  **  PROGRAM STARTED AT               2025-03-08 01:37:36.933
 ***** ** ***  *** **   PROGRAM STARTED ON                          i02r09c06s02
 **    ****   ******    PROGRAM STARTED BY                               di38fab
 ***** **    ** ** **   PROGRAM PROCESS ID                               2947811
  **** **  *******  **  PROGRAM STARTED IN /hppfs/scratch/04/di38fab/05_MOL/W4-1
                                           1+ALK/li_h/SZV

 CP2K| version string:                 CP2K version 2025.1 (Development Version)
 CP2K| source code revision number:                                  git:47877ba
 CP2K| cp2kflags: omp libint fftw3 libxc parallel scalapack max_contr=4         
 CP2K| is freely available from                            https://www.cp2k.org/
 CP2K| Program compiled at                          Thu Feb 20 16:00:34 CET 2025
 CP2K| Program compiled on                                               login04
 CP2K| Program compiled for                                        Supermuc-foss
 CP2K| Data directory path          /hppfs/work/pn36zo/di38fab/newcp2k/cp2k/data
 CP2K| Input file name                                                    GW.inp

 GLOBAL| Force Environment number                                              1
 GLOBAL| Basis set file name            /hppfs/scratch/04/di38fab/04_TMD/BASIS_A
 GLOBAL| Potential file name            /hppfs/work/pn36zo/di38fab/cp2k/data/ALL
 GLOBAL| MM Potential file name                                     MM_POTENTIAL
 GLOBAL| Coordinate file name                                      __STD_INPUT__
 GLOBAL| Method name                                                        CP2K
 GLOBAL| Project name                                                       MoS2
 GLOBAL| Run type                                                         ENERGY
 GLOBAL| FFT library                                                       FFTW3
 GLOBAL| Diagonalization library                                       ScaLAPACK
 GLOBAL| DGEMM library                                                      BLAS
 GLOBAL| Orthonormality check for eigenvectors                          DISABLED
 GLOBAL| Matrix multiplication library                                 ScaLAPACK
 GLOBAL| All-to-all communication in single precision                          F
 GLOBAL| FFTs using library dependent lengths                                  F
 GLOBAL| Grid backend                                                       AUTO
 GLOBAL| Global print level                                               MEDIUM
 GLOBAL| MPI I/O enabled                                                       T
 GLOBAL| Total number of message passing processes                            24
 GLOBAL| Number of threads for this process                                    4
 GLOBAL| This output is from process                                           0
 GLOBAL| OpenMP stack size per thread (OMP_STACKSIZE)                    default
 GLOBAL| CPU model name             Intel(R) Xeon(R) Platinum 8174 CPU @ 3.10GHz

 MEMORY| system memory details [Kb]
 MEMORY|                        rank 0           min           max       average
 MEMORY| MemTotal             98436664      98436664      98436664      98436664
 MEMORY| MemFree              83810228      83727164      83810228      83768696
 MEMORY| Buffers                     0             0             0             0
 MEMORY| Cached                2431244       2431244       2619620       2525432
 MEMORY| Slab                  1257000       1227620       1257000       1242310
 MEMORY| SReclaimable           270376        270376        270384        270380
 MEMORY| MemLikelyFree        86511848      86511848      86617168      86564508


 *** Fundamental physical constants (SI units) ***

 *** Literature: B. J. Mohr and B. N. Taylor,
 ***             CODATA recommended values of the fundamental physical
 ***             constants: 2006, Web Version 5.1
 ***             http://physics.nist.gov/constants

 Speed of light in vacuum [m/s]                             2.99792458000000E+08
 Magnetic constant or permeability of vacuum [N/A**2]       1.25663706143592E-06
 Electric constant or permittivity of vacuum [F/m]          8.85418781762039E-12
 Planck constant (h) [J*s]                                  6.62606896000000E-34
 Planck constant (h-bar) [J*s]                              1.05457162825177E-34
 Elementary charge [C]                                      1.60217648700000E-19
 Electron mass [kg]                                         9.10938215000000E-31
 Electron g factor [ ]                                     -2.00231930436220E+00
 Proton mass [kg]                                           1.67262163700000E-27
 Fine-structure constant                                    7.29735253760000E-03
 Rydberg constant [1/m]                                     1.09737315685270E+07
 Avogadro constant [1/mol]                                  6.02214179000000E+23
 Boltzmann constant [J/K]                                   1.38065040000000E-23
 Atomic mass unit [kg]                                      1.66053878200000E-27
 Bohr radius [m]                                            5.29177208590000E-11

 *** Conversion factors ***

 [u] -> [a.u.]                                              1.82288848426455E+03
 [Angstrom] -> [Bohr] = [a.u.]                              1.88972613288564E+00
 [a.u.] = [Bohr] -> [Angstrom]                              5.29177208590000E-01
 [a.u.] -> [s]                                              2.41888432650478E-17
 [a.u.] -> [fs]                                             2.41888432650478E-02
 [a.u.] -> [J]                                              4.35974393937059E-18
 [a.u.] -> [N]                                              8.23872205491840E-08
 [a.u.] -> [K]                                              3.15774647902944E+05
 [a.u.] -> [kJ/mol]                                         2.62549961709828E+03
 [a.u.] -> [kcal/mol]                                       6.27509468713739E+02
 [a.u.] -> [Pa]                                             2.94210107994716E+13
 [a.u.] -> [bar]                                            2.94210107994716E+08
 [a.u.] -> [atm]                                            2.90362800883016E+08
 [a.u.] -> [eV]                                             2.72113838565563E+01
 [a.u.] -> [Hz]                                             6.57968392072181E+15
 [a.u.] -> [1/cm] (wave numbers)                            2.19474631370540E+05
 [a.u./Bohr**2] -> [1/cm]                                   5.14048714338585E+03
 

 CELL_TOP| Volume [angstrom^3]:                                     27000.000000
 CELL_TOP| Vector a [angstrom    30.000     0.000     0.000   |a| =    30.000000
 CELL_TOP| Vector b [angstrom     0.000    30.000     0.000   |b| =    30.000000
 CELL_TOP| Vector c [angstrom     0.000     0.000    30.000   |c| =    30.000000
 CELL_TOP| Angle (b,c), alpha [degree]:                                90.000000
 CELL_TOP| Angle (a,c), beta  [degree]:                                90.000000
 CELL_TOP| Angle (a,b), gamma [degree]:                                90.000000
 CELL_TOP| Numerically orthorhombic:                                         YES
 CELL_TOP| Periodicity                                                      NONE

 GENERATE|  Preliminary Number of Bonds generated:                             0
 GENERATE|  Achieved consistency in connectivity generation.

 CELL| Volume [angstrom^3]:                                         27000.000000
 CELL| Vector a [angstrom]:      30.000     0.000     0.000   |a| =    30.000000
 CELL| Vector b [angstrom]:       0.000    30.000     0.000   |b| =    30.000000
 CELL| Vector c [angstrom]:       0.000     0.000    30.000   |c| =    30.000000
 CELL| Angle (b,c), alpha [degree]:                                    90.000000
 CELL| Angle (a,c), beta  [degree]:                                    90.000000
 CELL| Angle (a,b), gamma [degree]:                                    90.000000
 CELL| Numerically orthorhombic:                                             YES
 CELL| Periodicity                                                          NONE

 CELL_REF| Volume [angstrom^3]:                                     27000.000000
 CELL_REF| Vector a [angstrom    30.000     0.000     0.000   |a| =    30.000000
 CELL_REF| Vector b [angstrom     0.000    30.000     0.000   |b| =    30.000000
 CELL_REF| Vector c [angstrom     0.000     0.000    30.000   |c| =    30.000000
 CELL_REF| Angle (b,c), alpha [degree]:                                90.000000
 CELL_REF| Angle (a,c), beta  [degree]:                                90.000000
 CELL_REF| Angle (a,b), gamma [degree]:                                90.000000
 CELL_REF| Numerically orthorhombic:                                         YES
 CELL_REF| Periodicity                                                      NONE

 *******************************************************************************
 *******************************************************************************
 **                                                                           **
 **     #####                         ##              ##                      **
 **    ##   ##            ##          ##              ##                      **
 **   ##     ##                       ##            ######                    **
 **   ##     ##  ##   ##  ##   #####  ##  ##   ####   ##    #####    #####    **
 **   ##     ##  ##   ##  ##  ##      ## ##   ##      ##   ##   ##  ##   ##   **
 **   ##  ## ##  ##   ##  ##  ##      ####     ###    ##   ######   ######    **
 **    ##  ###   ##   ##  ##  ##      ## ##      ##   ##   ##       ##        **
 **     #######   #####   ##   #####  ##  ##  ####    ##    #####   ##        **
 **           ##                                                    ##        **
 **                                                                           **
 **                                                ... make the atoms dance   **
 **                                                                           **
 **            Copyright (C) by CP2K developers group (2000-2025)             **
 **                      J. Chem. Phys. 152, 194103 (2020)                    **
 **                                                                           **
 *******************************************************************************

 DFT| Spin restricted Kohn-Sham (RKS) calculation                            RKS
 DFT| Multiplicity                                                             1
 DFT| Number of spin states                                                    1
 DFT| Charge                                                                   0
 DFT| Self-interaction correction (SIC)                                       NO
 DFT| Cutoffs: density                                              1.000000E-10
 DFT|          gradient                                             1.000000E-10
 DFT|          tau                                                  1.000000E-10
 DFT|          cutoff_smoothing_range                               0.000000E+00
 DFT| XC density smoothing                                                  NONE
 DFT| XC derivatives                                                          PW

 FUNCTIONAL| PBE:
 FUNCTIONAL| J.P.Perdew, K.Burke, M.Ernzerhof, Phys. Rev. Letter, vol. 77, n 18,
 FUNCTIONAL|  pp. 3865-3868, (1996)sx=0.750sc=1.000{spin unpolarized}           


 QS| Method:                                                                GAPW
 QS| Density plane wave grid type                        NON-SPHERICAL FULLSPACE
 QS| Number of grid levels:                                                    4
 QS| Density cutoff [a.u.]:                                                250.0
 QS| Multi grid cutoff [a.u.]: 1) grid level                               250.0
 QS|                           2) grid level                                83.3
 QS|                           3) grid level                                27.8
 QS|                           4) grid level                                 9.3
 QS| Grid level progression factor:                                          3.0
 QS| Relative density cutoff [a.u.]:                                        50.0
 QS| Interaction thresholds: eps_pgf_orb:                                1.0E-12
 QS|                         eps_filter_matrix:                          0.0E+00
 QS|                         eps_core_charge:                            1.0E-14
 QS|                         eps_rho_gspace:                             1.0E-12
 QS|                         eps_rho_rspace:                             1.0E-12
 QS|                         eps_gvg_rspace:                             1.0E-06
 QS|                         eps_ppl:                                    1.0E-02
 QS|                         eps_ppnl:                                   1.0E-08
 QS| GAPW|      One center basis from orbital basis primitives
 QS| GAPW|                   eps_fit:                                    1.0E-04
 QS| GAPW|                   eps_iso:                                    1.0E-12
 QS| GAPW|                   eps_svd:                                    1.0E-08
 QS| GAPW|                   eps_cpc:                                    1.0E-12
 QS| GAPW|   atom-r-grid: quadrature:                                     GC_LOG
 QS| GAPW|      atom-s-grid:  max l :                                          4
 QS| GAPW|      max_l_rho0 :                                                   2


 ATOMIC KIND INFORMATION

  1. Atomic kind: li                                    Number of atoms:       1

     Orbital Basis Set                                         aug-SZV-MOLOPT-ae

       Number of orbital shell sets:                                           2
       Number of orbital shells:                                               6
       Number of primitive Cartesian functions:                               12
       Number of Cartesian basis functions:                                   15
       Number of spherical basis functions:                                   14
       Norm type:                                                              2

       Normalised Cartesian orbitals:

                        Set   Shell   Orbital            Exponent    Coefficient

                          1       1    1s                0.031084       0.012700
                                                         0.067814       0.056364
                                                         0.156146       0.044301
                                                         0.405851      -0.012244
                                                         1.305830      -0.040912
                                                         6.597564      -0.038883

                          1       2    2s                0.031084       0.052890
                                                         0.067814      -0.000168
                                                         0.156146      -0.000256
                                                         0.405851       0.000043
                                                         1.305830       0.000104
                                                         6.597564       0.000000

                          1       3    2px               0.031084       0.001892
                                                         0.067814       0.021007
                                                         0.156146       0.058488
                                                         0.405851       0.080295
                                                         1.305830       0.074973
                                                         6.597564       0.056666
                          1       3    2py               0.031084       0.001892
                                                         0.067814       0.021007
                                                         0.156146       0.058488
                                                         0.405851       0.080295
                                                         1.305830       0.074973
                                                         6.597564       0.056666
                          1       3    2pz               0.031084       0.001892
                                                         0.067814       0.021007
                                                         0.156146       0.058488
                                                         0.405851       0.080295
                                                         1.305830       0.074973
                                                         6.597564       0.056666

                          1       4    3px               0.031084      -0.000945
                                                         0.067814       0.051077
                                                         0.156146      -0.000811
                                                         0.405851       0.008960
                                                         1.305830       0.038611
                                                         6.597564       0.000000
                          1       4    3py               0.031084      -0.000945
                                                         0.067814       0.051077
                                                         0.156146      -0.000811
                                                         0.405851       0.008960
                                                         1.305830       0.038611
                                                         6.597564       0.000000
                          1       4    3pz               0.031084      -0.000945
                                                         0.067814       0.051077
                                                         0.156146      -0.000811
                                                         0.405851       0.008960
                                                         1.305830       0.038611
                                                         6.597564       0.000000

                          1       5    3dx2              0.031084       0.000452
                                                         0.067814       0.006113
                                                         0.156146       0.034198
                                                         0.405851       0.019071
                                                         1.305830       0.147410
                                                         6.597564       0.000000
                          1       5    3dxy              0.031084       0.000782
                                                         0.067814       0.010588
                                                         0.156146       0.059232
                                                         0.405851       0.033031
                                                         1.305830       0.255321
                                                         6.597564       0.000000
                          1       5    3dxz              0.031084       0.000782
                                                         0.067814       0.010588
                                                         0.156146       0.059232
                                                         0.405851       0.033031
                                                         1.305830       0.255321
                                                         6.597564       0.000000
                          1       5    3dy2              0.031084       0.000452
                                                         0.067814       0.006113
                                                         0.156146       0.034198
                                                         0.405851       0.019071
                                                         1.305830       0.147410
                                                         6.597564       0.000000
                          1       5    3dyz              0.031084       0.000782
                                                         0.067814       0.010588
                                                         0.156146       0.059232
                                                         0.405851       0.033031
                                                         1.305830       0.255321
                                                         6.597564       0.000000
                          1       5    3dz2              0.031084       0.000452
                                                         0.067814       0.006113
                                                         0.156146       0.034198
                                                         0.405851       0.019071
                                                         1.305830       0.147410
                                                         6.597564       0.000000

                          2       1    1s              167.175846       0.303638
                                                        30.651508       0.458287
                                                         8.575187       0.601924
                                                         2.945808       0.593848
                                                         1.143944       0.328337
                                                         0.471139       0.052824

     RI Auxiliary Basis Set             RI_aug-SZV-MOLOPT-ae_N_RI_104_s_p_d_f_g_

       Number of orbital shell sets:                                          20
       Number of orbital shells:                                              20
       Number of primitive Cartesian functions:                               20
       Number of Cartesian basis functions:                                  161
       Number of spherical basis functions:                                  104
       Norm type:                                                              2

       Normalised Cartesian orbitals:

                        Set   Shell   Orbital            Exponent    Coefficient

                          1       1   10dx2              0.100708       0.029633
                          1       1   10dxy              0.100708       0.051325
                          1       1   10dxz              0.100708       0.051325
                          1       1   10dy2              0.100708       0.029633
                          1       1   10dyz              0.100708       0.051325
                          1       1   10dz2              0.100708       0.029633

                          2       1   16gx4              0.111210       0.002651
                          2       1   16gx3y             0.111210       0.007013
                          2       1   16gx3z             0.111210       0.007013
                          2       1   16gx2y2            0.111210       0.009053
                          2       1   16gx2yz            0.111210       0.015681
                          2       1   16gx2z2            0.111210       0.009053
                          2       1   16gxy3             0.111210       0.007013
                          2       1   16gxy2z            0.111210       0.015681
                          2       1   16gxyz2            0.111210       0.015681
                          2       1   16gxz3             0.111210       0.007013
                          2       1   16gy4              0.111210       0.002651
                          2       1   16gy3z             0.111210       0.007013
                          2       1   16gy2z2            0.111210       0.009053
                          2       1   16gyz3             0.111210       0.007013
                          2       1   16gz4              0.111210       0.002651

                          3       1    6px               0.130688       0.112004
                          3       1    6py               0.130688       0.112004
                          3       1    6pz               0.130688       0.112004

                          4       1   14fx3              0.167053       0.026265
                          4       1   14fx2y             0.167053       0.058730
                          4       1   14fx2z             0.167053       0.058730
                          4       1   14fxy2             0.167053       0.058730
                          4       1   14fxyz             0.167053       0.101724
                          4       1   14fxz2             0.167053       0.058730
                          4       1   14fy3              0.167053       0.026265
                          4       1   14fy2z             0.167053       0.058730
                          4       1   14fyz2             0.167053       0.058730
                          4       1   14fz3              0.167053       0.026265

                          5       1    1s                0.237094       0.242159

                          6       1   11dx2              0.287429       0.185711
                          6       1   11dxy              0.287429       0.321661
                          6       1   11dxz              0.287429       0.321661
                          6       1   11dy2              0.287429       0.185711
                          6       1   11dyz              0.287429       0.321661
                          6       1   11dz2              0.287429       0.185711

                          7       1    7px               0.341534       0.372163
                          7       1    7py               0.341534       0.372163
                          7       1    7pz               0.341534       0.372163

                          8       1   18hx5              0.395239       0.036319
                          8       1   18hx4y             0.395239       0.108958
                          8       1   18hx4z             0.395239       0.108958
                          8       1   18hx3y2            0.395239       0.166436
                          8       1   18hx3yz            0.395239       0.288276
                          8       1   18hx3z2            0.395239       0.166436
                          8       1   18hx2y3            0.395239       0.166436
                          8       1   18hx2y2z           0.395239       0.372163
                          8       1   18hx2yz2           0.395239       0.372163
                          8       1   18hx2z3            0.395239       0.166436
                          8       1   18hxy4             0.395239       0.108958
                          8       1   18hxy3z            0.395239       0.288276
                          8       1   18hxy2z2           0.395239       0.372163
                          8       1   18hxyz3            0.395239       0.288276
                          8       1   18hxz4             0.395239       0.108958
                          8       1   18hy5              0.395239       0.036319
                          8       1   18hy4z             0.395239       0.108958
                          8       1   18hy3z2            0.395239       0.166436
                          8       1   18hy2z3            0.395239       0.166436
                          8       1   18hyz4             0.395239       0.108958
                          8       1   18hz5              0.395239       0.036319

                          9       1   19hx5              0.427250       0.046780
                          9       1   19hx4y             0.427250       0.140340
                          9       1   19hx4z             0.427250       0.140340
                          9       1   19hx3y2            0.427250       0.214373
                          9       1   19hx3yz            0.427250       0.371304
                          9       1   19hx3z2            0.427250       0.214373
                          9       1   19hx2y3            0.427250       0.214373
                          9       1   19hx2y2z           0.427250       0.479352
                          9       1   19hx2yz2           0.427250       0.479352
                          9       1   19hx2z3            0.427250       0.214373
                          9       1   19hxy4             0.427250       0.140340
                          9       1   19hxy3z            0.427250       0.371304
                          9       1   19hxy2z2           0.427250       0.479352
                          9       1   19hxyz3            0.427250       0.371304
                          9       1   19hxz4             0.427250       0.140340
                          9       1   19hy5              0.427250       0.046780
                          9       1   19hy4z             0.427250       0.140340
                          9       1   19hy3z2            0.427250       0.214373
                          9       1   19hy2z3            0.427250       0.214373
                          9       1   19hyz4             0.427250       0.140340
                          9       1   19hz5              0.427250       0.046780

                         10       1   17gx4              0.453614       0.126568
                         10       1   17gx3y             0.453614       0.334867
                         10       1   17gx3z             0.453614       0.334867
                         10       1   17gx2y2            0.453614       0.432311
                         10       1   17gx2yz            0.453614       0.748785
                         10       1   17gx2z2            0.453614       0.432311
                         10       1   17gxy3             0.453614       0.334867
                         10       1   17gxy2z            0.453614       0.748785
                         10       1   17gxyz2            0.453614       0.748785
                         10       1   17gxz3             0.453614       0.334867
                         10       1   17gy4              0.453614       0.126568
                         10       1   17gy3z             0.453614       0.334867
                         10       1   17gy2z2            0.453614       0.432311
                         10       1   17gyz3             0.453614       0.334867
                         10       1   17gz4              0.453614       0.126568

                         11       1   20ix6              0.734924       0.140957
                         11       1   20ix5y             0.734924       0.467502
                         11       1   20ix5z             0.734924       0.467502
                         11       1   20ix4y2            0.734924       0.809737
                         11       1   20ix4yz            0.734924       1.402506
                         11       1   20ix4z2            0.734924       0.809737
                         11       1   20ix3y3            0.734924       0.958094
                         11       1   20ix3y2z           0.734924       2.142364
                         11       1   20ix3yz2           0.734924       2.142364
                         11       1   20ix3z3            0.734924       0.958094
                         11       1   20ix2y4            0.734924       0.809737
                         11       1   20ix2y3z           0.734924       2.142364
                         11       1   20ix2y2z2          0.734924       2.765780
                         11       1   20ix2yz3           0.734924       2.142364
                         11       1   20ix2z4            0.734924       0.809737
                         11       1   20ixy5             0.734924       0.467502
                         11       1   20ixy4z            0.734924       1.402506
                         11       1   20ixy3z2           0.734924       2.142364
                         11       1   20ixy2z3           0.734924       2.142364
                         11       1   20ixyz4            0.734924       1.402506
                         11       1   20ixz5             0.734924       0.467502
                         11       1   20iy6              0.734924       0.140957
                         11       1   20iy5z             0.734924       0.467502
                         11       1   20iy4z2            0.734924       0.809737
                         11       1   20iy3z3            0.734924       0.958094
                         11       1   20iy2z4            0.734924       0.809737
                         11       1   20iyz5             0.734924       0.467502
                         11       1   20iz6              0.734924       0.140957

                         12       1   12dx2              0.816064       1.153259
                         12       1   12dxy              0.816064       1.997503
                         12       1   12dxz              0.816064       1.997503
                         12       1   12dy2              0.816064       1.153259
                         12       1   12dyz              0.816064       1.997503
                         12       1   12dz2              0.816064       1.153259

                         13       1    2s                0.920527       0.669788

                         14       1   15fx3              1.072909       1.724731
                         14       1   15fx2y             1.072909       3.856616
                         14       1   15fx2z             1.072909       3.856616
                         14       1   15fxy2             1.072909       3.856616
                         14       1   15fxyz             1.072909       6.679854
                         14       1   15fxz2             1.072909       3.856616
                         14       1   15fy3              1.072909       1.724731
                         14       1   15fy2z             1.072909       3.856616
                         14       1   15fyz2             1.072909       3.856616
                         14       1   15fz3              1.072909       1.724731

                         15       1    8px               1.335026       2.045513
                         15       1    8py               1.335026       2.045513
                         15       1    8pz               1.335026       2.045513

                         16       1   13dx2              2.328691       7.225292
                         16       1   13dxy              2.328691      12.514572
                         16       1   13dxz              2.328691      12.514572
                         16       1   13dy2              2.328691       7.225292
                         16       1   13dyz              2.328691      12.514572
                         16       1   13dz2              2.328691       7.225292

                         17       1    3s                2.633969       1.473561

                         18       1    9px               6.490610      14.767161
                         18       1    9py               6.490610      14.767161
                         18       1    9pz               6.490610      14.767161

                         19       1    4s                8.419142       3.522581

                         20       1    5s               37.612393      10.824512

       Atomic covalent radius [Angstrom]:                                  1.230

       Atomic van der Waals radius [Angstrom]:                             1.820

     The atoms of this atomic kind are PAW atoms (GAPW):
       Hard Gaussian function radius:                                      1.512
       Rho0 radius:                                                        1.512
       Maximum GTO radius used for PAW projector construction:            24.566

     GAPW Soft Basis Set                                  aug-SZV-MOLOPT-ae_soft

       Number of orbital shell sets:                                           2
       Number of orbital shells:                                               6
       Number of primitive Cartesian functions:                                8
       Number of Cartesian basis functions:                                   15
       Number of spherical basis functions:                                   14
       Norm type:                                                              2

       Normalised Cartesian orbitals:

                        Set   Shell   Orbital            Exponent    Coefficient

                          1       1    1s                0.031084       0.012700
                                                         0.067814       0.056364
                                                         0.156146       0.044301
                                                         0.405851      -0.012244
                                                         1.305830      -0.040912

                          1       2    2s                0.031084       0.052890
                                                         0.067814      -0.000168
                                                         0.156146      -0.000256
                                                         0.405851       0.000043
                                                         1.305830       0.000104

                          1       3    2px               0.031084       0.001892
                                                         0.067814       0.021007
                                                         0.156146       0.058488
                                                         0.405851       0.080295
                                                         1.305830       0.074973
                          1       3    2py               0.031084       0.001892
                                                         0.067814       0.021007
                                                         0.156146       0.058488
                                                         0.405851       0.080295
                                                         1.305830       0.074973
                          1       3    2pz               0.031084       0.001892
                                                         0.067814       0.021007
                                                         0.156146       0.058488
                                                         0.405851       0.080295
                                                         1.305830       0.074973

                          1       4    3px               0.031084      -0.000945
                                                         0.067814       0.051077
                                                         0.156146      -0.000811
                                                         0.405851       0.008960
                                                         1.305830       0.038611
                          1       4    3py               0.031084      -0.000945
                                                         0.067814       0.051077
                                                         0.156146      -0.000811
                                                         0.405851       0.008960
                                                         1.305830       0.038611
                          1       4    3pz               0.031084      -0.000945
                                                         0.067814       0.051077
                                                         0.156146      -0.000811
                                                         0.405851       0.008960
                                                         1.305830       0.038611

                          1       5    3dx2              0.031084       0.000452
                                                         0.067814       0.006113
                                                         0.156146       0.034198
                                                         0.405851       0.019071
                                                         1.305830       0.147410
                          1       5    3dxy              0.031084       0.000782
                                                         0.067814       0.010588
                                                         0.156146       0.059232
                                                         0.405851       0.033031
                                                         1.305830       0.255321
                          1       5    3dxz              0.031084       0.000782
                                                         0.067814       0.010588
                                                         0.156146       0.059232
                                                         0.405851       0.033031
                                                         1.305830       0.255321
                          1       5    3dy2              0.031084       0.000452
                                                         0.067814       0.006113
                                                         0.156146       0.034198
                                                         0.405851       0.019071
                                                         1.305830       0.147410
                          1       5    3dyz              0.031084       0.000782
                                                         0.067814       0.010588
                                                         0.156146       0.059232
                                                         0.405851       0.033031
                                                         1.305830       0.255321
                          1       5    3dz2              0.031084       0.000452
                                                         0.067814       0.006113
                                                         0.156146       0.034198
                                                         0.405851       0.019071
                                                         1.305830       0.147410

                          2       1    1s                2.945808       0.593848
                                                         1.143944       0.328337
                                                         0.471139       0.052824

     AE Potential information for                                            ALL

       Description:                                       All-electron potential
                                          Krack, Parrinello, PCCP 2, 2105 (2000)

       Gaussian exponent of the core charge distribution:               3.125000
       Electronic configuration (s p d ...):                           3   0   0

  2. Atomic kind: h                                     Number of atoms:       1

     Orbital Basis Set                                         aug-SZV-MOLOPT-ae

       Number of orbital shell sets:                                           1
       Number of orbital shells:                                               4
       Number of primitive Cartesian functions:                                7
       Number of Cartesian basis functions:                                    6
       Number of spherical basis functions:                                    6
       Norm type:                                                              2

       Normalised Cartesian orbitals:

                        Set   Shell   Orbital            Exponent    Coefficient

                          1       1    1s                0.065428       0.000000
                                                         0.100112       0.016532
                                                         0.243077       0.102760
                                                         0.625955       0.185857
                                                         1.822143       0.188385
                                                         6.513144       0.143430
                                                        35.523221       0.095030

                          1       2    2s                0.065428       0.083549
                                                         0.100112       0.009605
                                                         0.243077       0.002524
                                                         0.625955       0.013457
                                                         1.822143       0.000000
                                                         6.513144       0.000000
                                                        35.523221       0.000000

                          1       3    3s                0.065428       0.037407
                                                         0.100112      -0.169070
                                                         0.243077      -0.018899
                                                         0.625955       0.012806
                                                         1.822143       0.000000
                                                         6.513144       0.000000
                                                        35.523221       0.000000

                          1       4    2px               0.065428       0.059908
                                                         0.100112      -0.023770
                                                         0.243077       0.000032
                                                         0.625955       0.017779
                                                         1.822143       0.000000
                                                         6.513144       0.000000
                                                        35.523221       0.000000
                          1       4    2py               0.065428       0.059908
                                                         0.100112      -0.023770
                                                         0.243077       0.000032
                                                         0.625955       0.017779
                                                         1.822143       0.000000
                                                         6.513144       0.000000
                                                        35.523221       0.000000
                          1       4    2pz               0.065428       0.059908
                                                         0.100112      -0.023770
                                                         0.243077       0.000032
                                                         0.625955       0.017779
                                                         1.822143       0.000000
                                                         6.513144       0.000000
                                                        35.523221       0.000000

     RI Auxiliary Basis Set             RI_aug-SZV-MOLOPT-ae_N_RI_035_s_p_d_f_g_

       Number of orbital shell sets:                                          15
       Number of orbital shells:                                              15
       Number of primitive Cartesian functions:                               15
       Number of Cartesian basis functions:                                   37
       Number of spherical basis functions:                                   35
       Norm type:                                                              2

       Normalised Cartesian orbitals:

                        Set   Shell   Orbital            Exponent    Coefficient

                          1       1    1s                0.236911       0.242019

                          2       1    8px               0.347892       0.380843
                          2       1    8py               0.347892       0.380843
                          2       1    8pz               0.347892       0.380843

                          3       1    2s                0.423897       0.374417

                          4       1    9px               0.493166       0.589089
                          4       1    9py               0.493166       0.589089
                          4       1    9pz               0.493166       0.589089

                          5       1   14dx2              0.625366       0.723843
                          5       1   14dxy              0.625366       1.253733
                          5       1   14dxz              0.625366       1.253733
                          5       1   14dy2              0.625366       0.723843
                          5       1   14dyz              0.625366       1.253733
                          5       1   14dz2              0.625366       0.723843

                          6       1   10px               0.699103       0.911206
                          6       1   10py               0.699103       0.911206
                          6       1   10pz               0.699103       0.911206

                          7       1    3s                0.758464       0.579244

                          8       1   11px               0.991036       1.409457
                          8       1   11py               0.991036       1.409457
                          8       1   11pz               0.991036       1.409457

                          9       1   15dx2              1.286053       2.556305
                          9       1   15dxy              1.286053       4.427650
                          9       1   15dxz              1.286053       4.427650
                          9       1   15dy2              1.286053       2.556305
                          9       1   15dyz              1.286053       4.427650
                          9       1   15dz2              1.286053       2.556305

                         10       1    4s                1.357095       0.896123

                         11       1   12px               1.404875       2.180155
                         11       1   12py               1.404875       2.180155
                         11       1   12pz               1.404875       2.180155

                         12       1   13px               1.991527       3.372273
                         12       1   13py               1.991527       3.372273
                         12       1   13pz               1.991527       3.372273

                         13       1    5s                2.428204       1.386354

                         14       1    6s                4.344704       2.144768

                         15       1    7s                7.773833       3.318077

       Atomic covalent radius [Angstrom]:                                  0.320

       Atomic van der Waals radius [Angstrom]:                             1.090

     The atoms of this atomic kind are PAW atoms (GAPW):
       Hard Gaussian function radius:                                      1.200
       Rho0 radius:                                                        1.200
       Maximum GTO radius used for PAW projector construction:            24.566

     GAPW Soft Basis Set                                  aug-SZV-MOLOPT-ae_soft

       Number of orbital shell sets:                                           1
       Number of orbital shells:                                               4
       Number of primitive Cartesian functions:                                6
       Number of Cartesian basis functions:                                    6
       Number of spherical basis functions:                                    6
       Norm type:                                                              2

       Normalised Cartesian orbitals:

                        Set   Shell   Orbital            Exponent    Coefficient

                          1       1    1s                0.065428       0.000000
                                                         0.100112       0.016532
                                                         0.243077       0.102760
                                                         0.625955       0.185857
                                                         1.822143       0.188385
                                                         6.513144       0.000000

                          1       2    2s                0.065428       0.083549
                                                         0.100112       0.009605
                                                         0.243077       0.002524
                                                         0.625955       0.013457
                                                         1.822143       0.000000
                                                         6.513144       0.000000

                          1       3    3s                0.065428       0.037407
                                                         0.100112      -0.169070
                                                         0.243077      -0.018899
                                                         0.625955       0.012806
                                                         1.822143       0.000000
                                                         6.513144       0.000000

                          1       4    2px               0.065428       0.059908
                                                         0.100112      -0.023770
                                                         0.243077       0.000032
                                                         0.625955       0.017779
                                                         1.822143       0.000000
                                                         6.513144       0.000000
                          1       4    2py               0.065428       0.059908
                                                         0.100112      -0.023770
                                                         0.243077       0.000032
                                                         0.625955       0.017779
                                                         1.822143       0.000000
                                                         6.513144       0.000000
                          1       4    2pz               0.065428       0.059908
                                                         0.100112      -0.023770
                                                         0.243077       0.000032
                                                         0.625955       0.017779
                                                         1.822143       0.000000
                                                         6.513144       0.000000

     AE Potential information for                                            ALL

       Description:                                       All-electron potential
                                          Krack, Parrinello, PCCP 2, 2105 (2000)

       Gaussian exponent of the core charge distribution:              12.500000
       Electronic configuration (s p d ...):                           1   0   0


 MOLECULE KIND INFORMATION


 All atoms are their own molecule, skipping detailed information


 TOTAL NUMBERS AND MAXIMUM NUMBERS

  Total number of            - Atomic kinds:                                   2
                             - Atoms:                                          2
                             - Shell sets:                                     3
                             - Shells:                                        10
                             - Primitive Cartesian functions:                 19
                             - Cartesian basis functions:                     21
                             - Spherical basis functions:                     20

  Maximum angular momentum of the orbital basis functions:                     2


 MODULE QUICKSTEP: ATOMIC COORDINATES IN ANGSTROM

   Atom Kind Element         X             Y             Z       Z(eff)     Mass
      1    1 li    3     15.000000     15.000000     14.202603   3.0000   6.9410
      2    2 h     1     15.000000     15.000000     15.797397   1.0000   1.0079



 SCF PARAMETERS         Density guess:                                    ATOMIC
                        --------------------------------------------------------
                        max_scf:                                             500
                        max_scf_history:                                       0
                        max_diis:                                              4
                        --------------------------------------------------------
                        eps_scf:                                        1.00E-06
                        eps_scf_history:                                0.00E+00
                        eps_diis:                                       1.00E-01
                        eps_eigval:                                     1.00E-05
                        --------------------------------------------------------
                        level_shift [a.u.]:                             0.000000
                        added MOs                                        18    0
                        --------------------------------------------------------
                        Mixing method:                            BROYDEN_MIXING
                                                charge density mixing in g-space
                        --------------------------------------------------------
                        Smear method:                                FERMI_DIRAC
                        Electronic temperature [K]:                        300.0
                        Electronic temperature [a.u.]:                  9.50E-04
                        Accuracy threshold:                             1.00E-10
                        --------------------------------------------------------
                        No outer SCF

 PW_GRID| Information for grid number                                          1
 PW_GRID| Grid distributed over                                    24 processors
 PW_GRID| Real space group dimensions                                    24    1
 PW_GRID| the grid is blocked:                                                NO
 PW_GRID| Cutoff [a.u.]                                                    250.0
 PW_GRID| spherical cutoff:                                                   NO
 PW_GRID|   Bounds   1           -202     202                Points:         405
 PW_GRID|   Bounds   2           -202     202                Points:         405
 PW_GRID|   Bounds   3           -202     202                Points:         405
 PW_GRID| Volume element (a.u.^3)  0.2743E-02     Volume (a.u.^3)    182205.0337
 PW_GRID| Grid span                                                    FULLSPACE
 PW_GRID|   Distribution                         Average         Max         Min
 PW_GRID|   G-Vectors                          2767921.9     2768175     2767770
 PW_GRID|   G-Rays                                6834.4        6835        6834
 PW_GRID|   Real Space Points                  2767921.9     2788425     2624400

 PW_GRID| Information for grid number                                          2
 PW_GRID| Number of the reference grid                                         1
 PW_GRID| Grid distributed over                                    24 processors
 PW_GRID| Real space group dimensions                                    24    1
 PW_GRID| the grid is blocked:                                                NO
 PW_GRID| Cutoff [a.u.]                                                     83.3
 PW_GRID| spherical cutoff:                                                   NO
 PW_GRID|   Bounds   1           -120     119                Points:         240
 PW_GRID|   Bounds   2           -120     119                Points:         240
 PW_GRID|   Bounds   3           -120     119                Points:         240
 PW_GRID| Volume element (a.u.^3)  0.1318E-01     Volume (a.u.^3)    182205.0337
 PW_GRID| Grid span                                                    FULLSPACE
 PW_GRID|   Distribution                         Average         Max         Min
 PW_GRID|   G-Vectors                           576000.0      576240      575760
 PW_GRID|   G-Rays                                2400.0        2401        2399
 PW_GRID|   Real Space Points                   576000.0      576000      576000

 PW_GRID| Information for grid number                                          3
 PW_GRID| Number of the reference grid                                         1
 PW_GRID| Grid distributed over                                    24 processors
 PW_GRID| Real space group dimensions                                    24    1
 PW_GRID| the grid is blocked:                                                NO
 PW_GRID| Cutoff [a.u.]                                                     27.8
 PW_GRID| spherical cutoff:                                                   NO
 PW_GRID|   Bounds   1            -67      67                Points:         135
 PW_GRID|   Bounds   2            -67      67                Points:         135
 PW_GRID|   Bounds   3            -67      67                Points:         135
 PW_GRID| Volume element (a.u.^3)  0.7406E-01     Volume (a.u.^3)    182205.0337
 PW_GRID| Grid span                                                    FULLSPACE
 PW_GRID|   Distribution                         Average         Max         Min
 PW_GRID|   G-Vectors                           102515.6      102735      102330
 PW_GRID|   G-Rays                                 759.4         761         758
 PW_GRID|   Real Space Points                   102515.6      109350       91125

 PW_GRID| Information for grid number                                          4
 PW_GRID| Number of the reference grid                                         1
 PW_GRID| Grid distributed over                                    24 processors
 PW_GRID| Real space group dimensions                                    24    1
 PW_GRID| the grid is blocked:                                                NO
 PW_GRID| Cutoff [a.u.]                                                      9.3
 PW_GRID| spherical cutoff:                                                   NO
 PW_GRID|   Bounds   1            -40      39                Points:          80
 PW_GRID|   Bounds   2            -40      39                Points:          80
 PW_GRID|   Bounds   3            -40      39                Points:          80
 PW_GRID| Volume element (a.u.^3)  0.3559         Volume (a.u.^3)    182205.0337
 PW_GRID| Grid span                                                    FULLSPACE
 PW_GRID|   Distribution                         Average         Max         Min
 PW_GRID|   G-Vectors                            21333.3       21360       21280
 PW_GRID|   G-Rays                                 266.7         267         266
 PW_GRID|   Real Space Points                    21333.3       25600       19200

 POISSON| Solver                                                         WAVELET
 POISSON| Wavelet| Scaling function                                           40
 POISSON| Periodicity                                                       NONE

 RS_GRID| Information for grid number                                          1
 RS_GRID|   Bounds   1           -202     202                Points:         405
 RS_GRID|   Bounds   2           -202     202                Points:         405
 RS_GRID|   Bounds   3           -202     202                Points:         405
 RS_GRID| Real space distribution over                                  4 groups
 RS_GRID| Real space distribution along direction                              2
 RS_GRID| Border size                                                         35
 RS_GRID| Real space distribution over                                  6 groups
 RS_GRID| Real space distribution along direction                              3
 RS_GRID| Border size                                                         35
 RS_GRID|   Distribution                         Average         Max         Min
 RS_GRID|   Planes                                 171.2         172         171
 RS_GRID|   Distribution                         Average         Max         Min
 RS_GRID|   Planes                                 137.5         138         137

 RS_GRID| Information for grid number                                          2
 RS_GRID|   Bounds   1           -120     119                Points:         240
 RS_GRID|   Bounds   2           -120     119                Points:         240
 RS_GRID|   Bounds   3           -120     119                Points:         240
 RS_GRID| Real space distribution over                                  4 groups
 RS_GRID| Real space distribution along direction                              2
 RS_GRID| Border size                                                         37
 RS_GRID| Real space distribution over                                  6 groups
 RS_GRID| Real space distribution along direction                              3
 RS_GRID| Border size                                                         37
 RS_GRID|   Distribution                         Average         Max         Min
 RS_GRID|   Planes                                 134.0         134         134
 RS_GRID|   Distribution                         Average         Max         Min
 RS_GRID|   Planes                                 114.0         114         114

 RS_GRID| Information for grid number                                          3
 RS_GRID|   Bounds   1            -67      67                Points:         135
 RS_GRID|   Bounds   2            -67      67                Points:         135
 RS_GRID|   Bounds   3            -67      67                Points:         135
 RS_GRID| Real space fully replicated
 RS_GRID| Group size                                                           1

 RS_GRID| Information for grid number                                          4
 RS_GRID|   Bounds   1            -40      39                Points:          80
 RS_GRID|   Bounds   2            -40      39                Points:          80
 RS_GRID|   Bounds   3            -40      39                Points:          80
 RS_GRID| Real space fully replicated
 RS_GRID| Group size                                                           1

  HFX_INFO| Replica ID:                                                        1
  HFX_INFO| FRACTION:                                               0.2500000000
  HFX_INFO| Interaction Potential:                                       COULOMB
  HFX_INFO| EPS_SCHWARZ:                                                 1.0E-10
  HFX_INFO| EPS_SCHWARZ_FORCES                                           1.0E-08
  HFX_INFO| EPS_STORAGE_SCALING:                                         1.0E+00
  HFX_INFO| NBINS:                                                            64
  HFX_INFO| BLOCK_SIZE:                                                        1
  HFX_INFO| Number of periodic shells considered:                           NONE
  HFX_INFO| Number of periodic cells considered:                            NONE

 
 RI-RPA| using GPW style
 

 OVERLAP MATRIX CONDITION NUMBER
 1-Norm Condition Number (Estimate)
   CN : |A|*|A^-1|:  5.703E+000 *  3.693E+002   = 2.106E+003  Log(1-CN):  3.3235
 1-Norm and 2-Norm Condition Numbers using Diagonalization
   CN : |A|*|A^-1|:  5.703E+000 *  3.693E+002   = 2.106E+003  Log(1-CN):  3.3235
   CN : max/min ev:  4.359E+000 /  4.595E-003   = 9.488E+002  Log(2-CN):  2.9772

 Number of electrons:                                                          4
 Number of occupied orbitals:                                                  2
 Number of molecular orbitals:                                                20

 Number of orbital functions:                                                 20
 Number of independent orbital functions:                                     20

 Extrapolation method: initial_guess

 Atomic guess: The first density matrix is obtained in terms of atomic orbitals
               and electronic configurations assigned to each atomic kind

 Guess for atomic kind: li

 Electronic structure
    Total number of core electrons                                          0.00
    Total number of valence electrons                                       3.00
    Total number of electrons                                               3.00
    Multiplicity                                                   not specified
    S      2.00  1.00


 *******************************************************************************
                  Iteration          Convergence                     Energy [au]
 *******************************************************************************
                          1        0.202411E-01                  -7.312657268297
                          2        0.138544E-02                  -7.312790799951
                          3        0.998413E-04                  -7.312791595344
                          4        0.135314E-06                  -7.312791602719

 Energy components [Hartree]           Total Energy ::           -7.312791602719
                                        Band Energy ::           -3.804143623497
                                     Kinetic Energy ::            7.228768871590
                                   Potential Energy ::          -14.541560474309
                                      Virial (-V/T) ::            2.011623380498
                                        Core Energy ::           -9.676221740042
                                          XC Energy ::           -1.669700551228
                                     Coulomb Energy ::            4.033130688551

 Orbital energies  State     L     Occupation   Energy[a.u.]          Energy[eV]

                       1     0          2.000      -1.849901          -50.338356
                       2     0          1.000      -0.104342           -2.839301


 Total Electron Density at R=0:                                        10.832580

 Guess for atomic kind: h

 Electronic structure
    Total number of core electrons                                          0.00
    Total number of valence electrons                                       1.00
    Total number of electrons                                               1.00
    Multiplicity                                                   not specified
    S      1.00


 *******************************************************************************
                  Iteration          Convergence                     Energy [au]
 *******************************************************************************
                          1        0.962691E-02                  -0.444368661081
                          2        0.109107E-02                  -0.444473520424
                          3        0.117094E-03                  -0.444476577889
                          4        0.851579E-07                  -0.444476596085

 Energy components [Hartree]           Total Energy ::           -0.444476596085
                                        Band Energy ::           -0.233451424826
                                     Kinetic Energy ::            0.431260327433
                                   Potential Energy ::           -0.875736923518
                                      Virial (-V/T) ::            2.030645686170
                                        Core Energy ::           -0.494218917327
                                          XC Energy ::           -0.231476335377
                                     Coulomb Energy ::            0.281218656618

 Orbital energies  State     L     Occupation   Energy[a.u.]          Energy[eV]

                       1     0          1.000      -0.233451           -6.352536


 Total Electron Density at R=0:                                         0.270947
 Re-scaling the density matrix to get the right number of electrons
                  # Electrons              Trace(P)               Scaling factor
                            4                 4.000                        1.000


 SCF WAVEFUNCTION OPTIMIZATION

  Step     Update method      Time    Convergence         Total energy    Change
  ------------------------------------------------------------------------------

  HFX_MEM_INFO| Est. max. program size before HFX [MiB]:                    2153
  HFX_MEM_INFO| Number of cart. primitive ERI's calculated:             34980204
  HFX_MEM_INFO| Number of sph. ERI's calculated:                           73312
  HFX_MEM_INFO| Number of sph. ERI's stored in-core:                       73312
  HFX_MEM_INFO| Number of sph. ERI's stored on disk:                           0
  HFX_MEM_INFO| Number of sph. ERI's calculated on the fly:                    0
  HFX_MEM_INFO| Total memory consumption ERI's RAM [MiB]:                      1
  HFX_MEM_INFO| Whereof max-vals [MiB]:                                        1
  HFX_MEM_INFO| Total compression factor ERI's RAM:                         0.57
  HFX_MEM_INFO| Total memory consumption ERI's disk [MiB]:                     0
  HFX_MEM_INFO| Total compression factor ERI's disk:                        0.00
  HFX_MEM_INFO| Size of density/Fock matrix [MiB]:                             0
  HFX_MEM_INFO| Size of buffers [MiB]:                                         0
  HFX_MEM_INFO| Est. max. program size after HFX  [MiB]:                    2664

     1 NoMix/Diag. 0.10E+00    7.6     0.42983836        -7.9054681673 -7.91E+00
     2 Broy./Diag. 0.10E+00    4.7     0.08732753        -7.7298514526  1.76E-01
     3 Broy./Diag. 0.10E+00    4.9     0.17339102        -7.4319730137  2.98E-01
     4 Broy./Diag. 0.10E+00    4.9     0.08074539        -7.2481640246  1.84E-01
     5 Broy./Diag. 0.10E+00    5.0     0.08872907        -7.4314341166 -1.83E-01
     6 Broy./Diag. 0.10E+00    5.1     0.12169085        -7.5815739210 -1.50E-01
     7 Broy./Diag. 0.10E+00    5.1     0.03758897        -7.6329111258 -5.13E-02
     8 Broy./Diag. 0.10E+00    5.2     0.34222758        -7.8804177213 -2.48E-01
     9 Broy./Diag. 0.10E+00    5.6     0.13384865        -8.0591173196 -1.79E-01
    10 Broy./Diag. 0.10E+00    5.9     0.02505036        -8.1007997589 -4.17E-02
    11 Broy./Diag. 0.10E+00    5.6     0.13710474        -7.9875866663  1.13E-01
    12 Broy./Diag. 0.10E+00    5.6     0.02817970        -7.9623692064  2.52E-02
    13 Broy./Diag. 0.10E+00    5.5     0.00638343        -7.9711574837 -8.79E-03
    14 Broy./Diag. 0.10E+00    5.4     0.01255748        -7.9829214237 -1.18E-02
    15 Broy./Diag. 0.10E+00    5.4     0.04934824        -8.0167697496 -3.38E-02
    16 Broy./Diag. 0.10E+00    5.4     0.01513412        -8.0386292727 -2.19E-02
    17 Broy./Diag. 0.10E+00    5.5     0.01906839        -8.0263622952  1.23E-02
    18 Broy./Diag. 0.10E+00    5.4     0.02052596        -8.0306018637 -4.24E-03
    19 Broy./Diag. 0.10E+00    5.3     0.01295114        -8.0407068415 -1.01E-02
    20 Broy./Diag. 0.10E+00    5.4     0.00394407        -8.0421165130 -1.41E-03
    21 Broy./Diag. 0.10E+00    5.5     0.01136435        -8.0355061587  6.61E-03
    22 Broy./Diag. 0.10E+00    5.4     0.00661679        -8.0362731175 -7.67E-04
    23 Broy./Diag. 0.10E+00    5.6     0.00224092        -8.0364991518 -2.26E-04
    24 Broy./Diag. 0.10E+00    5.7     0.00105779        -8.0354509042  1.05E-03
    25 Broy./Diag. 0.10E+00    5.7     0.00235372        -8.0359921701 -5.41E-04
    26 Broy./Diag. 0.10E+00    5.7     0.00171065        -8.0357204993  2.72E-04
    27 Broy./Diag. 0.10E+00    5.6     0.00094656        -8.0349371400  7.83E-04
    28 Broy./Diag. 0.10E+00    5.5     0.00177278        -8.0345629707  3.74E-04
    29 Broy./Diag. 0.10E+00    5.5     0.00142641        -8.0336941834  8.69E-04
    30 Broy./Diag. 0.10E+00    5.5     0.00477855        -8.0337956234 -1.01E-04
    31 Broy./Diag. 0.10E+00    5.4     0.00109835        -8.0340398367 -2.44E-04
    32 Broy./Diag. 0.10E+00    5.5     0.00287409        -8.0330353920  1.00E-03
    33 Broy./Diag. 0.10E+00    5.4     0.00062703        -8.0329491654  8.62E-05
    34 Broy./Diag. 0.10E+00    5.4     0.00057109        -8.0334618593 -5.13E-04
    35 Broy./Diag. 0.10E+00    5.4     0.00048667        -8.0332950299  1.67E-04
    36 Broy./Diag. 0.10E+00    5.3     0.00088528        -8.0328851529  4.10E-04
    37 Broy./Diag. 0.10E+00    5.3     0.00049972        -8.0330888966 -2.04E-04
    38 Broy./Diag. 0.10E+00    5.4     0.00018057        -8.0332815139 -1.93E-04
    39 Broy./Diag. 0.10E+00    5.5     0.00052280        -8.0330490750  2.32E-04
    40 Broy./Diag. 0.10E+00    5.7     0.00021524        -8.0330344597  1.46E-05
    41 Broy./Diag. 0.10E+00    5.7     0.00014804        -8.0331021759 -6.77E-05
    42 Broy./Diag. 0.10E+00    5.6     0.00021171        -8.0329968066  1.05E-04
    43 Broy./Diag. 0.10E+00    5.6     0.00004167        -8.0329701571  2.66E-05
    44 Broy./Diag. 0.10E+00    5.5     0.00012661        -8.0330665864 -9.64E-05
    45 Broy./Diag. 0.10E+00    5.5     0.00002035        -8.0330856325 -1.90E-05
    46 Broy./Diag. 0.10E+00    5.4     0.00008982        -8.0330198444  6.58E-05
    47 Broy./Diag. 0.10E+00    5.6     0.00006493        -8.0330281198 -8.28E-06
    48 Broy./Diag. 0.10E+00    5.4     0.00009169        -8.0330388776 -1.08E-05
    49 Broy./Diag. 0.10E+00    5.5     0.00010723        -8.0330218129  1.71E-05
    50 Broy./Diag. 0.10E+00    5.4     0.00001119        -8.0330202525  1.56E-06
    51 Broy./Diag. 0.10E+00    5.4     0.00008417        -8.0330070379  1.32E-05
    52 Broy./Diag. 0.10E+00    5.3     0.00002481        -8.0329920950  1.49E-05
    53 Broy./Diag. 0.10E+00    5.3     0.00002766        -8.0329895173  2.58E-06
    54 Broy./Diag. 0.10E+00    5.3     0.00003093        -8.0329884637  1.05E-06
    55 Broy./Diag. 0.10E+00    5.5     0.00001409        -8.0329798939  8.57E-06
[...]
 -------------------------------------------------------------------------------

 ROUTINE             CALLS      AVE VOLUME [Bytes]
 MP_Group              290
 MP_Bcast              711                 467994.
 MP_Allreduce         5866                   2728.
 MP_Sync               809
 MP_Alltoall          2041              109897177.
 MP_SendRecv          3453                 532166.
 MP_ISendRecv         6854                 269372.
 MP_Wait             20763
 MP_comm_split         127
 MP_ISend            12870                2108283.
 MP_IRecv            12903                2102891.
 -------------------------------------------------------------------------------


 -------------------------------------------------------------------------------
 -                                                                             -
 -                           R E F E R E N C E S                               -
 -                                                                             -
 -------------------------------------------------------------------------------
 
 CP2K version 2025.1 (Development Version), the CP2K developers group (2025).
 CP2K is freely available from https://www.cp2k.org/ .
 
 T. D. Kuehne, M. Iannuzzi, M. Del Ben, V. V. Rybkin, P. Seewald, F. Stein, T. 
 Laino, R. Z. Khaliullin, O. Schuett, F. Schiffmann, D. Golze, J. Wilhelm, S. 
 Chulkov, M. H. Bani-Hashemian, V. Weber, U. Borstnik, M. Taillefumier, A. S. 
 Jakobovits, A. Lazzaro, H. Pabst, T. Mueller, R. Schade, M. Guidon, S. 
 Andermatt, N. Holmberg, G. K. Schenter, A. Hehn, A. Bussy, F. Belleflamme, G. 
 Tabacchi, A. Gloess, M. Lass, I. Bethune, C. J. Mundy, C. Plessl, M. Watkins, 
 J. VandeVondele, M. Krack, J. Hutter.
 J. Chem. Phys. 152, 194103 (2020).
 CP2K: An electronic structure and molecular dynamics software package - 
 Quickstep: Efficient and accurate electronic structure calculations.
 https://doi.org/10.1063/5.0007045

 J. Wilhelm, D. Golze, L. Talirz, J. Hutter, C. A. Pignedoli.
 J. Phys. Chem. Lett. 9, 306-312 (2018).
 Toward GW calculations on thousands of atoms.
 https://doi.org/10.1021/acs.jpclett.7b02740

 J. Wilhelm, J. Hutter.
 Phys. Rev. B 95, 235123 (2017).
 Periodic GW calculations in the Gaussian and plane-waves scheme.
 https://doi.org/10.1103/PhysRevB.95.235123

 O. Schuett, P. Messmer, J. Hutter, J. VandeVondele.
 Electronic Structure Calculations on Graphics Processing Units, 173-190 (2016).
 GPU-Accelerated Sparse Matrix-Matrix Multiplication for Linear Scaling Density 
 Functional Theory.
 https://doi.org/10.1002/9781118670712.ch8

 J. Wilhelm, M. Del Ben, J. Hutter.
 J. Chem. Theory Comput. 12, 3623-3635 (2016).
 GW in the Gaussian and plane waves scheme with application to linear acenes.
 https://doi.org/10.1021/acs.jctc.6b00380

 M. Del Ben, O. Schuett, T. Wentz, P. Messmer, J. Hutter, J. VandeVondele.
 Comput. Phys. Commun. 187, 120-129 (2015).
 Enabling simulation at the fifth rung of DFT: Large scale RPA calculations with 
 excellent time to solution.
 https://doi.org/10.1016/j.cpc.2014.10.021

 J. Hutter, M. Iannuzzi, F. Schiffmann, J. VandeVondele.
 WIREs Comput Mol Sci. 4, 15-25 (2014).
 CP2K: atomistic simulations of condensed matter systems.
 https://doi.org/10.1002/wcms.1159

 U. Borstnik, J. VandeVondele, V. Weber, J. Hutter.
 Parallel Comput. 40, 47-58 (2014).
 Sparse matrix multiplication: The distributed block-compressed sparse row 
 library.
 https://doi.org/10.1016/j.parco.2014.03.012

 M. Del Ben, J. Hutter, J. VandeVondele.
 J. Chem. Theory Comput. 9, 2654-2671 (2013).
 Electron Correlation in the Condensed Phase from a Resolution of Identity 
 Approach Based on the Gaussian and Plane Waves Scheme.
 https://doi.org/10.1021/ct4002202

 M. Del Ben, J. Hutter, J. VandeVondele.
 J. Chem. Theory Comput. 8, 4177-4188 (2012).
 Second-Order Moller-Plesset Perturbation Theory in the Condensed Phase: An 
 Efficient and Massively Parallel Gaussian and Plane Waves Approach.
 https://doi.org/10.1021/ct300531w

 M. Guidon, J. Hutter, J. VandeVondele.
 J. Chem. Theory Comput. 5, 3010-3021 (2009).
 Robust Periodic Hartree-Fock Exchange for Large-Scale Simulations Using 
 Gaussian Basis Sets.
 https://doi.org/10.1021/ct900494g

 M. Guidon, F. Schiffmann, J. Hutter, J. VandeVondele.
 J. Chem. Phys. 128, 214104 (2008).
 Ab initio molecular dynamics using hybrid density functionals.
 https://doi.org/10.1063/1.2931945

 L. Genovese, T. Deutsch, S. Goedecker.
 J. Chem. Phys. 127, 054704 (2007).
 Efficient and accurate three-dimensional Poisson solver for surface problems.
 https://doi.org/10.1063/1.2754685

 J. VandeVondele, J. Hutter.
 J. Chem. Phys. 127, 114105 (2007).
 Gaussian basis sets for accurate calculations on molecular systems in gas and 
 condensed phases.
 https://doi.org/10.1063/1.2770708

 L. Genovese, T. Deutsch, A. Neelov, S. Goedecker, G. Beylkin.
 J. Chem. Phys. 125, 074105 (2006).
 Efficient solution of Poisson's equation with free boundary conditions.
 https://doi.org/10.1063/1.2335442

 M. Frigo, S. G. Johnson.
 Proc. IEEE 93, 216-231 (2005).
 The design and implementation of FFTW3.
 https://doi.org/10.1109/JPROC.2004.840301

 M. Krack, M. Parrinello.
 Phys. Chem. Chem. Phys. 2, 2105-2112 (2000).
 All-electron ab-initio molecular dynamics.
 https://doi.org/10.1039/b001167n

 G. Lippert, J. Hutter, M. Parrinello.
 Theor. Chem. Acc. 103, 124-140 (1999).
 The Gaussian and augmented-plane-wave density functional method for ab initio 
 molecular dynamics simulations.
 https://doi.org/10.1007/s002140050523

 J. P. Perdew, K. Burke, M. Ernzerhof.
 Phys. Rev. Lett. 77, 3865-3868 (1996).
 Generalized gradient approximation made simple.
 https://doi.org/10.1103/PhysRevLett.77.3865


 -------------------------------------------------------------------------------
 -                                                                             -
 -                                T I M I N G                                  -
 -                                                                             -
 -------------------------------------------------------------------------------
 SUBROUTINE                       CALLS  ASD         SELF TIME        TOTAL TIME
                                MAXIMUM       AVERAGE  MAXIMUM  AVERAGE  MAXIMUM
 CP2K                                 1  1.0    0.045    0.070  405.975  405.975
 qs_energies                          1  2.0    0.001    0.001  404.697  404.916
 scf_env_do_scf                       1  3.0    0.000    0.000  400.137  400.137
 scf_env_do_scf_inner_loop           73  4.0    0.002    0.005  400.137  400.137
 qs_ks_build_kohn_sham_matrix        74  7.0    0.012    0.013  300.606  300.615
 qs_ks_update_qs_env                 73  5.0    0.001    0.001  297.979  297.987
 rebuild_ks_matrix                   73  6.0    0.000    0.000  297.975  297.983
 fft_wrap_pw1pw2                   1545  9.9    0.038    0.047  178.129  179.756
 fft_wrap_pw1pw2_250               1101 11.1    7.858    8.837  172.534  174.484
 fft3d_ps                          1545 11.9   77.503   81.026  140.321  141.740
 pw_poisson_solve                    74  8.0    3.256    3.333  121.879  121.921
 qs_vxc_create                       74  8.0    0.001    0.001  108.069  108.070
 xc_vxc_pw_create                    73  9.0    2.039    2.128  108.068  108.069
 ps_wavelet_solve                    74  9.0   68.235   73.583   81.401   81.712
 xc_pw_derive                       438 11.0    0.006    0.006   77.154   78.289
 mp_alltoall_d54                     74 10.0    8.223   63.974    8.223   63.974
 gspace_mixing                       72  5.0    1.484    1.525   56.007   56.007
 xc_rho_set_and_dset_create          73 10.0    1.538    1.798   53.590   54.776
 xc_pw_divergence                    73 10.0    0.003    0.004   51.504   52.461
 mp_alltoall_z22v                  1545 13.9   38.769   49.637   38.769   49.637
 qs_rho_update_rho_low               74  5.0    0.001    0.001   46.434   46.434
 calculate_rho_elec                  74  6.0    1.629    1.686   46.382   46.383
 broyden_mixing                      72  6.0   41.502   42.471   42.709   43.109
 x_to_yz                            808 13.1   16.315   16.591   35.276   36.238
 density_rs2pw                       74  7.0    0.005    0.006   34.263   34.610
 yz_to_x                            737 12.8    7.713    9.323   27.521   34.270
 sum_up_and_integrate                74  8.0    0.001    0.002   24.861   24.899
 integrate_v_rspace                  74  9.0    0.002    0.003   24.409   24.482
 potential_pw2rs                     74 10.0    0.069    0.083   23.880   23.959
 prepare_gapw_den                    74  8.0    0.001    0.001   19.524   19.808
 put_rho0_on_grid                    74  9.0    1.525    1.572   18.844   19.128
 transfer_pw2rs                     371 10.6    0.006    0.007   14.196   14.306
 pw_scatter_p                       808 12.1   12.857   13.053   12.857   13.053
 xc_functional_eval                 365 10.9    0.001    0.003   11.786   12.851
 pbe_lda_eval                       365 11.9   11.785   12.849   11.785   12.849
 transfer_rs2pw                     371  8.4    0.011    0.015   12.036   12.191
 pw_gather_p                        737 11.8   10.748   11.721   10.748   11.721
 mp_waitany                       12488 11.5   10.060   10.905   10.060   10.905
 transfer_pw2rs_250                 149 11.0    3.697    3.963   10.335   10.596
 grid_collocate_task_list            74  7.0    9.898   10.429    9.898   10.429
 pw_derive                          660 11.3    8.736    9.175    8.736    9.175
 transfer_rs2pw_250                 149 10.0    3.880    4.162    8.975    9.172
 mp_sum_d                          1694  6.2    4.742    7.662    4.742    7.662
 integrate_vhg0_rspace               74  8.0    0.024    0.029    6.488    6.499
 mp_alltoall_d45                     75 10.0    4.105    5.418    4.105    5.418
 fft_wrap_pw1pw2_90                 148 10.5    0.226    0.325    4.575    5.276
 cp2k_distribution_to_z_slices       74  9.0    2.933    3.155    4.635    5.087
 pw_copy                           1105 10.6    4.672    4.965    4.672    4.965
 hfx_ks_matrix                       74  8.0    0.003    0.003    4.751    4.843
 integrate_four_center               74  9.0    1.485    3.127    4.747    4.838
 pw_poisson_set                      75  8.9    0.003    0.003    4.382    4.424
 pw_copy_to_array                   737 11.8    3.864    4.293    3.864    4.293
 mp_alltoall_d11v                  1400  9.5    3.196    4.172    3.196    4.172
 mp_sync                            809  9.5    2.351    3.833    2.351    3.833
 pw_axpy                            735  9.3    3.221    3.515    3.221    3.515
 mp2_main                             1  3.0    0.000    0.000    3.268    3.486
 rs_grid_zero                       372 11.2    3.244    3.321    3.244    3.321
 pw_integral_ab_c1d_c1d_gs           74  9.0    2.206    2.447    2.624    2.774
 pw_copy_from_array                 808 12.1    2.173    2.692    2.173    2.692
 compute_vec_Sigma_x_minus_vxc_       1  4.0    0.000    0.000    2.636    2.636
 transfer_pw2rs_90                   74 12.0    0.587    0.632    2.006    2.163
 pw_poisson_rebuild                  74  9.0    0.000    0.000    1.815    1.845
 ps_wavelet_create                    1 10.0    0.000    0.000    1.815    1.844
 RS_z_slice_distribution              1 11.0    1.662    1.723    1.815    1.844
 calculate_vxc_atom                  74  8.0    0.028    0.175    1.783    1.783
 transfer_rs2pw_90                   74  9.0    0.458    0.481    1.482    1.617
 mp_isend_dv                      12459 11.6    0.987    1.600    0.987    1.600
 pw_zero                            440 10.3    1.504    1.577    1.504    1.577
 mp_sum_dm                          522  7.6    1.149    1.567    1.149    1.567
 transfer_pw2rs_30                   74 12.0    0.835    0.897    1.429    1.540
 gaVxcgb_GC                         146  9.0    0.063    1.503    0.063    1.503
 transfer_rs2pw_30                   74  9.0    0.651    0.665    1.255    1.287
 mp_waitall_1                     13736 12.1    0.984    1.239    0.984    1.239
 init_scf_run                         1  3.0    0.000    0.000    1.046    1.047
 scf_env_initial_rho_setup            1  4.0    0.000    0.000    1.042    1.043
 mp_max_i                           564  3.0    0.545    1.035    0.545    1.035
 mp_irecv_dm3                      1784 11.5    0.550    1.035    0.550    1.035
 scale_and_distribute               148 10.0    0.991    1.034    0.991    1.034
 mp_isend_dm3                      1784 11.5    0.526    0.969    0.526    0.969
 integrate_four_center_main          74 10.0    0.042    0.687    0.055    0.937
 Vh_1c_gg_integrals                  74  8.0    0.010    0.126    0.256    0.863
 qs_init_subsys                       1  2.0    0.006    0.008    0.860    0.861
 qs_env_setup                         1  3.0    0.000    0.000    0.850    0.853
 qs_env_rebuild_pw_env                2  3.5    0.000    0.000    0.849    0.852
 pw_env_rebuild                       1  5.0    0.001    0.001    0.849    0.851
 fft_wrap_pw1pw2_30                 148 10.5    0.036    0.043    0.796    0.846
 pw_grid_setup                        4  6.0    0.000    0.000    0.838    0.840
 pw_grid_setup_internal               4  7.0    0.019    0.024    0.838    0.840
 mp_sendrecv_dv                    3404 10.0    0.793    0.840    0.793    0.840
 mp_sum_dv                         2067 11.2    0.666    0.814    0.666    0.814
 pw_grid_sort                         4  8.0    0.472    0.477    0.669    0.677
 calculate_rho_atom                 148  9.0    0.176    0.660    0.176    0.660
 calc_screening_functions             1 10.0    0.432    0.436    0.602    0.608
 rs_gather_matrices                  74 10.0    0.001    0.003    0.416    0.529
 pw_scale                           293  9.5    0.455    0.515    0.455    0.515
 grid_integrate_task_list            74 10.0    0.111    0.502    0.111    0.502
 mp2_gpw_main                         1  4.0    0.000    0.000    0.447    0.459
 transfer_pw2rs_10                   74 12.0    0.182    0.191    0.420    0.450
 qs_scf_new_mos                      73  5.0    0.001    0.001    0.433    0.447
 mp_isendrecv_dv                   6808 12.0    0.218    0.434    0.218    0.434
 mp_sum_i                            17  9.9    0.219    0.384    0.219    0.384
 restraint_control                    1  2.0    0.000    0.000    0.219    0.383
 mp2_main_alloc_hfx                   1  4.0    0.164    0.383    0.164    0.383
 transfer_rs2pw_10                   74  9.0    0.123    0.129    0.313    0.327
 powell_optimize                 118390 11.0    0.296    0.308    0.296    0.308
 rpa_ri_compute_en                    1  5.0    0.000    0.001    0.303    0.303
 rpa_num_int                          1  6.0    0.001    0.001    0.300    0.300
 mixing_init                          1  5.0    0.290    0.294    0.294    0.295
 xc_pw_smooth                        73 10.0    0.000    0.000    0.197    0.253
 integrate_four_center_bin         5826 11.0    0.013    0.251    0.013    0.251
 calc_pair_dist_radii                 1 10.0    0.105    0.106    0.231    0.243
 mp_irecv_dv                      12425 11.6    0.112    0.207    0.112    0.207
 fft_wrap_pw1pw2_10                 148 10.5    0.008    0.010    0.187    0.205
 sort_shells                          4  9.0    0.197    0.200    0.197    0.200
 scf_post_calculation_gpw             1  3.0    0.000    0.000    0.195    0.196
 write_available_results              1  4.0    0.000    0.000    0.195    0.196
 write_mo_free_results                1  5.0    0.034    0.046    0.194    0.195
 eigensolver_symm                    74  6.0    0.003    0.003    0.194    0.195
 cp_fm_syevd                         79  7.0    0.001    0.001    0.182    0.183
 calculate_dm_sparse                 73  6.0    0.001    0.001    0.171    0.173
 cp_dbcsr_plus_fm_fm_t               73  7.0    0.001    0.001    0.170    0.172
 dbcsr_multiply_generic             126  8.1    0.006    0.006    0.151    0.156
 cp_fm_redistribute_end              79  8.0    0.082    0.136    0.083    0.138
 compute_GW_self_energy             100  7.0    0.001    0.001    0.131    0.134
 rpa_num_int_RPA_matrix_operati     100  7.0    0.001    0.002    0.128    0.128
 parallel_gemm_fm                   365  8.5    0.001    0.001    0.122    0.128
 parallel_gemm_fm_gemm              365  9.5    0.001    0.001    0.122    0.127
 cp_fm_gemm                         365 10.5    0.121    0.127    0.121    0.127
 mp2_ri_gpw_compute_in                1  5.0    0.000    0.000    0.119    0.119
 mp2_ri_gpw_compute_in_loop           1  6.0    0.000    0.000    0.113    0.113
 cp_fm_syevd_base                    79  8.0    0.054    0.108    0.054    0.108
 pw_grid_assign                       4  8.0    0.103    0.106    0.106    0.107
 vxc_of_r_new                       292  9.0    0.001    0.014    0.004    0.096
 copy_dbcsr_to_fm                   108  6.6    0.002    0.002    0.079    0.092
 contract_B_L                         4  7.0    0.001    0.001    0.076    0.091
 calc_mat_Q                         100  8.0    0.000    0.000    0.089    0.089
 contract_S_to_Q                    100  9.0    0.000    0.001    0.088    0.088
 hirshfeld_integration                1  6.0    0.001    0.003    0.082    0.085
 compute_GW_self_energy_deep        100  8.0    0.022    0.024    0.080    0.083
 make_m2s                           252  9.1    0.004    0.004    0.077    0.082
 create_qs_kind_set                   1  2.0    0.000    0.000    0.081    0.082
 read_qs_kind                         2  3.0    0.023    0.034    0.081    0.082
 dbcsr_complete_redistribute        258  8.4    0.009    0.012    0.080    0.081
 calculate_hirshfeld_normalizat       1  6.0    0.001    0.004    0.073    0.077
 parser_read_line                  3548  4.0    0.001    0.001    0.057    0.061
 parser_read_line_low                10  5.0    0.006    0.021    0.056    0.059
 mp_cart_create                     400 10.3    0.043    0.058    0.044    0.058
 broadcast_input_information         10  6.0    0.013    0.015    0.050    0.057
 offload_free_buffer                 82  8.4    0.040    0.052    0.040    0.052
 calculate_rho_atom_coeff            74  6.0    0.012    0.024    0.051    0.051
 cp_fm_to_fm_submat_general         112 10.1    0.050    0.051    0.050    0.051
 qs_energies_init_hamiltonians        1  3.0    0.000    0.000    0.051    0.051
 multiply_cannon                    126  9.1    0.010    0.010    0.047    0.049
 build_core_hamiltonian_matrix        1  4.0    0.000    0.000    0.048    0.048
 dbcsr_desymmetrize_deep            110  7.5    0.002    0.003    0.033    0.047
 overlap_condnum                      1  5.0    0.000    0.000    0.046    0.046
 cp_fm_cholesky_invert              101  8.0    0.040    0.045    0.040    0.045
 cp_fm_redistribute_start            79  8.0    0.035    0.036    0.044    0.044
 copy_fm_to_dbcsr                   150  8.1    0.001    0.001    0.043    0.044
 dbt_pgrid_create_expert             80 10.7    0.000    0.000    0.028    0.043
 mp_sum_l                          1002  6.3    0.033    0.041    0.033    0.041
 -------------------------------------------------------------------------------

 The number of warnings for this run is : 1
 
 -------------------------------------------------------------------------------
  **** **** ******  **  PROGRAM ENDED AT                 2025-03-08 01:44:23.579
 ***** ** ***  *** **   PROGRAM RAN ON                              i02r09c06s02
 **    ****   ******    PROGRAM RAN BY                                   di38fab
 ***** **    ** ** **   PROGRAM PROCESS ID                               2947811
  **** **  *******  **  PROGRAM STOPPED IN /hppfs/scratch/04/di38fab/05_MOL/W4-1
                                           1+ALK/li_h/SZV
