 DBCSR| CPU Multiplication driver                                           BLAS (U)
 DBCSR| Multrec recursion limit                                              512 (U)
 DBCSR| Multiplication stack size                                           1000 (D)
 DBCSR| Maximum elements for images                                    UNLIMITED (U)
 DBCSR| Multiplicative factor virtual images                                   1 (U)
 DBCSR| Use multiplication densification                                       T (D)
 DBCSR| Multiplication size stacks                                             3 (U)
 DBCSR| Use memory pool for CPU allocation                                     F (U)
 DBCSR| Number of 3D layers                                               SINGLE (U)
 DBCSR| Use MPI memory allocation                                              F (U)
 DBCSR| Use RMA algorithm                                                      F (U)
 DBCSR| Use Communication thread                                               T (U)
 DBCSR| Communication thread load                                             75 (D)
 DBCSR| MPI: My process id                                                     0
 DBCSR| MPI: Number of processes                                              24
 DBCSR| OMP: Current number of threads                                         4
 DBCSR| OMP: Max number of threads                                             4
 DBCSR| Split modifier for TAS multiplication algorithm                  1.0E+00 (U)


  **** **** ******  **  PROGRAM STARTED AT               2025-03-08 03:07:58.297
 ***** ** ***  *** **   PROGRAM STARTED ON                          i04r10c02s12
 **    ****   ******    PROGRAM STARTED BY                               di38fab
 ***** **    ** ** **   PROGRAM PROCESS ID                                735704
  **** **  *******  **  PROGRAM STARTED IN /hppfs/scratch/04/di38fab/05_MOL/W4-1
                                           1+ALK/bh/DZVP

 CP2K| version string:                 CP2K version 2025.1 (Development Version)
 CP2K| source code revision number:                                  git:47877ba
 CP2K| cp2kflags: omp libint fftw3 libxc parallel scalapack max_contr=4         
 CP2K| is freely available from                            https://www.cp2k.org/
 CP2K| Program compiled at                          Thu Feb 20 16:00:34 CET 2025
 CP2K| Program compiled on                                               login04
 CP2K| Program compiled for                                        Supermuc-foss
 CP2K| Data directory path          /hppfs/work/pn36zo/di38fab/newcp2k/cp2k/data
 CP2K| Input file name                                                    GW.inp

 GLOBAL| Force Environment number                                              1
 GLOBAL| Basis set file name            /hppfs/scratch/04/di38fab/04_TMD/BASIS_A
 GLOBAL| Potential file name            /hppfs/work/pn36zo/di38fab/cp2k/data/ALL
 GLOBAL| MM Potential file name                                     MM_POTENTIAL
 GLOBAL| Coordinate file name                                      __STD_INPUT__
 GLOBAL| Method name                                                        CP2K
 GLOBAL| Project name                                                       MoS2
 GLOBAL| Run type                                                         ENERGY
 GLOBAL| FFT library                                                       FFTW3
 GLOBAL| Diagonalization library                                       ScaLAPACK
 GLOBAL| DGEMM library                                                      BLAS
 GLOBAL| Orthonormality check for eigenvectors                          DISABLED
 GLOBAL| Matrix multiplication library                                 ScaLAPACK
 GLOBAL| All-to-all communication in single precision                          F
 GLOBAL| FFTs using library dependent lengths                                  F
 GLOBAL| Grid backend                                                       AUTO
 GLOBAL| Global print level                                               MEDIUM
 GLOBAL| MPI I/O enabled                                                       T
 GLOBAL| Total number of message passing processes                            24
 GLOBAL| Number of threads for this process                                    4
 GLOBAL| This output is from process                                           0
 GLOBAL| OpenMP stack size per thread (OMP_STACKSIZE)                    default
 GLOBAL| CPU model name             Intel(R) Xeon(R) Platinum 8174 CPU @ 3.10GHz

 MEMORY| system memory details [Kb]
 MEMORY|                        rank 0           min           max       average
 MEMORY| MemTotal             98436660      98436660      98436868      98436764
 MEMORY| MemFree              83892644      83863340      83892644      83877992
 MEMORY| Buffers                     0             0             0             0
 MEMORY| Cached                2400776       2400776       2410256       2405516
 MEMORY| Slab                  1231488       1231488       1234000       1232744
 MEMORY| SReclaimable           271516        267592        271516        269554
 MEMORY| MemLikelyFree        86564936      86541188      86564936      86553062


 *** Fundamental physical constants (SI units) ***

 *** Literature: B. J. Mohr and B. N. Taylor,
 ***             CODATA recommended values of the fundamental physical
 ***             constants: 2006, Web Version 5.1
 ***             http://physics.nist.gov/constants

 Speed of light in vacuum [m/s]                             2.99792458000000E+08
 Magnetic constant or permeability of vacuum [N/A**2]       1.25663706143592E-06
 Electric constant or permittivity of vacuum [F/m]          8.85418781762039E-12
 Planck constant (h) [J*s]                                  6.62606896000000E-34
 Planck constant (h-bar) [J*s]                              1.05457162825177E-34
 Elementary charge [C]                                      1.60217648700000E-19
 Electron mass [kg]                                         9.10938215000000E-31
 Electron g factor [ ]                                     -2.00231930436220E+00
 Proton mass [kg]                                           1.67262163700000E-27
 Fine-structure constant                                    7.29735253760000E-03
 Rydberg constant [1/m]                                     1.09737315685270E+07
 Avogadro constant [1/mol]                                  6.02214179000000E+23
 Boltzmann constant [J/K]                                   1.38065040000000E-23
 Atomic mass unit [kg]                                      1.66053878200000E-27
 Bohr radius [m]                                            5.29177208590000E-11

 *** Conversion factors ***

 [u] -> [a.u.]                                              1.82288848426455E+03
 [Angstrom] -> [Bohr] = [a.u.]                              1.88972613288564E+00
 [a.u.] = [Bohr] -> [Angstrom]                              5.29177208590000E-01
 [a.u.] -> [s]                                              2.41888432650478E-17
 [a.u.] -> [fs]                                             2.41888432650478E-02
 [a.u.] -> [J]                                              4.35974393937059E-18
 [a.u.] -> [N]                                              8.23872205491840E-08
 [a.u.] -> [K]                                              3.15774647902944E+05
 [a.u.] -> [kJ/mol]                                         2.62549961709828E+03
 [a.u.] -> [kcal/mol]                                       6.27509468713739E+02
 [a.u.] -> [Pa]                                             2.94210107994716E+13
 [a.u.] -> [bar]                                            2.94210107994716E+08
 [a.u.] -> [atm]                                            2.90362800883016E+08
 [a.u.] -> [eV]                                             2.72113838565563E+01
 [a.u.] -> [Hz]                                             6.57968392072181E+15
 [a.u.] -> [1/cm] (wave numbers)                            2.19474631370540E+05
 [a.u./Bohr**2] -> [1/cm]                                   5.14048714338585E+03
 

 CELL_TOP| Volume [angstrom^3]:                                     27000.000000
 CELL_TOP| Vector a [angstrom    30.000     0.000     0.000   |a| =    30.000000
 CELL_TOP| Vector b [angstrom     0.000    30.000     0.000   |b| =    30.000000
 CELL_TOP| Vector c [angstrom     0.000     0.000    30.000   |c| =    30.000000
 CELL_TOP| Angle (b,c), alpha [degree]:                                90.000000
 CELL_TOP| Angle (a,c), beta  [degree]:                                90.000000
 CELL_TOP| Angle (a,b), gamma [degree]:                                90.000000
 CELL_TOP| Numerically orthorhombic:                                         YES
 CELL_TOP| Periodicity                                                      NONE

 GENERATE|  Preliminary Number of Bonds generated:                             0
 GENERATE|  Achieved consistency in connectivity generation.

 CELL| Volume [angstrom^3]:                                         27000.000000
 CELL| Vector a [angstrom]:      30.000     0.000     0.000   |a| =    30.000000
 CELL| Vector b [angstrom]:       0.000    30.000     0.000   |b| =    30.000000
 CELL| Vector c [angstrom]:       0.000     0.000    30.000   |c| =    30.000000
 CELL| Angle (b,c), alpha [degree]:                                    90.000000
 CELL| Angle (a,c), beta  [degree]:                                    90.000000
 CELL| Angle (a,b), gamma [degree]:                                    90.000000
 CELL| Numerically orthorhombic:                                             YES
 CELL| Periodicity                                                          NONE

 CELL_REF| Volume [angstrom^3]:                                     27000.000000
 CELL_REF| Vector a [angstrom    30.000     0.000     0.000   |a| =    30.000000
 CELL_REF| Vector b [angstrom     0.000    30.000     0.000   |b| =    30.000000
 CELL_REF| Vector c [angstrom     0.000     0.000    30.000   |c| =    30.000000
 CELL_REF| Angle (b,c), alpha [degree]:                                90.000000
 CELL_REF| Angle (a,c), beta  [degree]:                                90.000000
 CELL_REF| Angle (a,b), gamma [degree]:                                90.000000
 CELL_REF| Numerically orthorhombic:                                         YES
 CELL_REF| Periodicity                                                      NONE

 *******************************************************************************
 *******************************************************************************
 **                                                                           **
 **     #####                         ##              ##                      **
 **    ##   ##            ##          ##              ##                      **
 **   ##     ##                       ##            ######                    **
 **   ##     ##  ##   ##  ##   #####  ##  ##   ####   ##    #####    #####    **
 **   ##     ##  ##   ##  ##  ##      ## ##   ##      ##   ##   ##  ##   ##   **
 **   ##  ## ##  ##   ##  ##  ##      ####     ###    ##   ######   ######    **
 **    ##  ###   ##   ##  ##  ##      ## ##      ##   ##   ##       ##        **
 **     #######   #####   ##   #####  ##  ##  ####    ##    #####   ##        **
 **           ##                                                    ##        **
 **                                                                           **
 **                                                ... make the atoms dance   **
 **                                                                           **
 **            Copyright (C) by CP2K developers group (2000-2025)             **
 **                      J. Chem. Phys. 152, 194103 (2020)                    **
 **                                                                           **
 *******************************************************************************

 DFT| Spin restricted Kohn-Sham (RKS) calculation                            RKS
 DFT| Multiplicity                                                             1
 DFT| Number of spin states                                                    1
 DFT| Charge                                                                   0
 DFT| Self-interaction correction (SIC)                                       NO
 DFT| Cutoffs: density                                              1.000000E-10
 DFT|          gradient                                             1.000000E-10
 DFT|          tau                                                  1.000000E-10
 DFT|          cutoff_smoothing_range                               0.000000E+00
 DFT| XC density smoothing                                                  NONE
 DFT| XC derivatives                                                          PW

 FUNCTIONAL| PBE:
 FUNCTIONAL| J.P.Perdew, K.Burke, M.Ernzerhof, Phys. Rev. Letter, vol. 77, n 18,
 FUNCTIONAL|  pp. 3865-3868, (1996)sx=0.750sc=1.000{spin unpolarized}           


 QS| Method:                                                                GAPW
 QS| Density plane wave grid type                        NON-SPHERICAL FULLSPACE
 QS| Number of grid levels:                                                    4
 QS| Density cutoff [a.u.]:                                                250.0
 QS| Multi grid cutoff [a.u.]: 1) grid level                               250.0
 QS|                           2) grid level                                83.3
 QS|                           3) grid level                                27.8
 QS|                           4) grid level                                 9.3
 QS| Grid level progression factor:                                          3.0
 QS| Relative density cutoff [a.u.]:                                        50.0
 QS| Interaction thresholds: eps_pgf_orb:                                1.0E-12
 QS|                         eps_filter_matrix:                          0.0E+00
 QS|                         eps_core_charge:                            1.0E-14
 QS|                         eps_rho_gspace:                             1.0E-12
 QS|                         eps_rho_rspace:                             1.0E-12
 QS|                         eps_gvg_rspace:                             1.0E-06
 QS|                         eps_ppl:                                    1.0E-02
 QS|                         eps_ppnl:                                   1.0E-08
 QS| GAPW|      One center basis from orbital basis primitives
 QS| GAPW|                   eps_fit:                                    1.0E-04
 QS| GAPW|                   eps_iso:                                    1.0E-12
 QS| GAPW|                   eps_svd:                                    1.0E-08
 QS| GAPW|                   eps_cpc:                                    1.0E-12
 QS| GAPW|   atom-r-grid: quadrature:                                     GC_LOG
 QS| GAPW|      atom-s-grid:  max l :                                          6
 QS| GAPW|      max_l_rho0 :                                                   2


 ATOMIC KIND INFORMATION

  1. Atomic kind: B                                     Number of atoms:       1

     Orbital Basis Set                                        aug-DZVP-MOLOPT-ae

       Number of orbital shell sets:                                           2
       Number of orbital shells:                                              10
       Number of primitive Cartesian functions:                               12
       Number of Cartesian basis functions:                                   35
       Number of spherical basis functions:                                   30
       Norm type:                                                              2

       Normalised Cartesian orbitals:

                        Set   Shell   Orbital            Exponent    Coefficient

                          1       1    2s                0.082134       0.085473
                                                         0.140000       0.049675
                                                         0.279625      -0.030750
                                                         0.881274       0.022030
                                                         4.510873       0.000000

                          1       2    3px               0.082134      -0.004879
                                                         0.140000       0.000000
                                                         0.279625      -0.151722
                                                         0.881274      -0.583957
                                                         4.510873      -1.036243
                          1       2    3py               0.082134      -0.004879
                                                         0.140000       0.000000
                                                         0.279625      -0.151722
                                                         0.881274      -0.583957
                                                         4.510873      -1.036243
                          1       2    3pz               0.082134      -0.004879
                                                         0.140000       0.000000
                                                         0.279625      -0.151722
                                                         0.881274      -0.583957
                                                         4.510873      -1.036243

                          1       3    4px               0.082134       0.052233
                                                         0.140000       0.000000
                                                         0.279625       0.094300
                                                         0.881274      -0.581323
                                                         4.510873      -0.510604
                          1       3    4py               0.082134       0.052233
                                                         0.140000       0.000000
                                                         0.279625       0.094300
                                                         0.881274      -0.581323
                                                         4.510873      -0.510604
                          1       3    4pz               0.082134       0.052233
                                                         0.140000       0.000000
                                                         0.279625       0.094300
                                                         0.881274      -0.581323
                                                         4.510873      -0.510604

                          1       4    5px               0.082134       0.024659
                                                         0.140000       0.076570
                                                         0.279625      -0.053289
                                                         0.881274       0.410720
                                                         4.510873       0.000000
                          1       4    5py               0.082134       0.024659
                                                         0.140000       0.076570
                                                         0.279625      -0.053289
                                                         0.881274       0.410720
                                                         4.510873       0.000000
                          1       4    5pz               0.082134       0.024659
                                                         0.140000       0.076570
                                                         0.279625      -0.053289
                                                         0.881274       0.410720
                                                         4.510873       0.000000

                          1       5    4dx2              0.082134       0.000404
                                                         0.140000       0.000000
                                                         0.279625       0.111576
                                                         0.881274       0.641739
                                                         4.510873      -0.272354
                          1       5    4dxy              0.082134       0.000700
                                                         0.140000       0.000000
                                                         0.279625       0.193255
                                                         0.881274       1.111524
                                                         4.510873      -0.471731
                          1       5    4dxz              0.082134       0.000700
                                                         0.140000       0.000000
                                                         0.279625       0.193255
                                                         0.881274       1.111524
                                                         4.510873      -0.471731
                          1       5    4dy2              0.082134       0.000404
                                                         0.140000       0.000000
                                                         0.279625       0.111576
                                                         0.881274       0.641739
                                                         4.510873      -0.272354
                          1       5    4dyz              0.082134       0.000700
                                                         0.140000       0.000000
                                                         0.279625       0.193255
                                                         0.881274       1.111524
                                                         4.510873      -0.471731
                          1       5    4dz2              0.082134       0.000404
                                                         0.140000       0.000000
                                                         0.279625       0.111576
                                                         0.881274       0.641739
                                                         4.510873      -0.272354

                          1       6    5dx2              0.082134       0.036596
                                                         0.140000      -0.054919
                                                         0.279625      -0.008802
                                                         0.881274      -0.232953
                                                         4.510873       0.000000
                          1       6    5dxy              0.082134       0.063387
                                                         0.140000      -0.095122
                                                         0.279625      -0.015246
                                                         0.881274      -0.403486
                                                         4.510873       0.000000
                          1       6    5dxz              0.082134       0.063387
                                                         0.140000      -0.095122
                                                         0.279625      -0.015246
                                                         0.881274      -0.403486
                                                         4.510873       0.000000
                          1       6    5dy2              0.082134       0.036596
                                                         0.140000      -0.054919
                                                         0.279625      -0.008802
                                                         0.881274      -0.232953
                                                         4.510873       0.000000
                          1       6    5dyz              0.082134       0.063387
                                                         0.140000      -0.095122
                                                         0.279625      -0.015246
                                                         0.881274      -0.403486
                                                         4.510873       0.000000
                          1       6    5dz2              0.082134       0.036596
                                                         0.140000      -0.054919
                                                         0.279625      -0.008802
                                                         0.881274      -0.232953
                                                         4.510873       0.000000

                          1       7    5fx3              0.082134      -0.000468
                                                         0.140000       0.012301
                                                         0.279625       0.033988
                                                         0.881274       0.068820
                                                         4.510873       0.000000
                          1       7    5fx2y             0.082134      -0.001048
                                                         0.140000       0.027506
                                                         0.279625       0.075998
                                                         0.881274       0.153886
                                                         4.510873       0.000000
                          1       7    5fx2z             0.082134      -0.001048
                                                         0.140000       0.027506
                                                         0.279625       0.075998
                                                         0.881274       0.153886
                                                         4.510873       0.000000
                          1       7    5fxy2             0.082134      -0.001048
                                                         0.140000       0.027506
                                                         0.279625       0.075998
                                                         0.881274       0.153886
                                                         4.510873       0.000000
                          1       7    5fxyz             0.082134      -0.001814
                                                         0.140000       0.047643
                                                         0.279625       0.131633
                                                         0.881274       0.266539
                                                         4.510873       0.000000
                          1       7    5fxz2             0.082134      -0.001048
                                                         0.140000       0.027506
                                                         0.279625       0.075998
                                                         0.881274       0.153886
                                                         4.510873       0.000000
                          1       7    5fy3              0.082134      -0.000468
                                                         0.140000       0.012301
                                                         0.279625       0.033988
                                                         0.881274       0.068820
                                                         4.510873       0.000000
                          1       7    5fy2z             0.082134      -0.001048
                                                         0.140000       0.027506
                                                         0.279625       0.075998
                                                         0.881274       0.153886
                                                         4.510873       0.000000
                          1       7    5fyz2             0.082134      -0.001048
                                                         0.140000       0.027506
                                                         0.279625       0.075998
                                                         0.881274       0.153886
                                                         4.510873       0.000000
                          1       7    5fz3              0.082134      -0.000468
                                                         0.140000       0.012301
                                                         0.279625       0.033988
                                                         0.881274       0.068820
                                                         4.510873       0.000000

                          2       1    1s              839.324562      -0.573042
                                                       126.174643      -1.097170
                                                        28.339532      -1.625259
                                                         7.329111      -1.470436
                                                         2.208031      -0.468381
                                                         0.410209      -0.026981
                                                         0.151694      -0.023850

                          2       2    2s              839.324562       0.050684
                                                       126.174643      -0.115654
                                                        28.339532      -0.168560
                                                         7.329111      -0.289389
                                                         2.208031      -0.246292
                                                         0.410209       0.238157
                                                         0.151694       0.084355

                          2       3    3s              839.324562      -2.590681
                                                       126.174643       0.127370
                                                        28.339532      -1.260776
                                                         7.329111      -0.567183
                                                         2.208031      -0.073452
                                                         0.410209      -0.458063
                                                         0.151694       0.280188

     RI Auxiliary Basis Set             RI_aug-DZVP-MOLOPT-ae_N_RI_115_s_p_d_f_g

       Number of orbital shell sets:                                          25
       Number of orbital shells:                                              25
       Number of primitive Cartesian functions:                               25
       Number of Cartesian basis functions:                                  166
       Number of spherical basis functions:                                  115
       Norm type:                                                              2

       Normalised Cartesian orbitals:

                        Set   Shell   Orbital            Exponent    Coefficient

                          1       1   13dx2              0.170623       0.074555
                          1       1   13dxy              0.170623       0.129133
                          1       1   13dxz              0.170623       0.129133
                          1       1   13dy2              0.170623       0.074555
                          1       1   13dyz              0.170623       0.129133
                          1       1   13dz2              0.170623       0.074555

                          2       1    1s                0.173422       0.191531

                          3       1    8px               0.220288       0.215119
                          3       1    8py               0.220288       0.215119
                          3       1    8pz               0.220288       0.215119

                          4       1   18fx3              0.238515       0.058528
                          4       1   18fx2y             0.238515       0.130873
                          4       1   18fx2z             0.238515       0.130873
                          4       1   18fxy2             0.238515       0.130873
                          4       1   18fxyz             0.238515       0.226679
                          4       1   18fxz2             0.238515       0.130873
                          4       1   18fy3              0.238515       0.058528
                          4       1   18fy2z             0.238515       0.130873
                          4       1   18fyz2             0.238515       0.130873
                          4       1   18fz3              0.238515       0.058528

                          5       1    2s                0.320895       0.303866

                          6       1   14dx2              0.355916       0.269940
                          6       1   14dxy              0.355916       0.467551
                          6       1   14dxz              0.355916       0.467551
                          6       1   14dy2              0.355916       0.269940
                          6       1   14dyz              0.355916       0.467551
                          6       1   14dz2              0.355916       0.269940

                          7       1   19fx3              0.387052       0.173955
                          7       1   19fx2y             0.387052       0.388974
                          7       1   19fx2z             0.387052       0.388974
                          7       1   19fxy2             0.387052       0.388974
                          7       1   19fxyz             0.387052       0.673723
                          7       1   19fxz2             0.387052       0.388974
                          7       1   19fy3              0.387052       0.173955
                          7       1   19fy2z             0.387052       0.388974
                          7       1   19fyz2             0.387052       0.388974
                          7       1   19fz3              0.387052       0.173955

                          8       1    9px               0.494109       0.590499
                          8       1    9py               0.494109       0.590499
                          8       1    9pz               0.494109       0.590499

                          9       1   23gx4              0.603947       0.278088
                          9       1   23gx3y             0.603947       0.735751
                          9       1   23gx3z             0.603947       0.735751
                          9       1   23gx2y2            0.603947       0.949851
                          9       1   23gx2yz            0.603947       1.645190
                          9       1   23gx2z2            0.603947       0.949851
                          9       1   23gxy3             0.603947       0.735751
                          9       1   23gxy2z            0.603947       1.645190
                          9       1   23gxyz2            0.603947       1.645190
                          9       1   23gxz3             0.603947       0.735751
                          9       1   23gy4              0.603947       0.278088
                          9       1   23gy3z             0.603947       0.735751
                          9       1   23gy2z2            0.603947       0.949851
                          9       1   23gyz3             0.603947       0.735751
                          9       1   23gz4              0.603947       0.278088

                         10       1   20fx3              0.627644       0.516190
                         10       1   20fx2y             0.627644       1.154237
                         10       1   20fx2z             0.627644       1.154237
                         10       1   20fxy2             0.627644       1.154237
                         10       1   20fxyz             0.627644       1.999197
                         10       1   20fxz2             0.627644       1.154237
                         10       1   20fy3              0.627644       0.516190
                         10       1   20fy2z             0.627644       1.154237
                         10       1   20fyz2             0.627644       1.154237
                         10       1   20fz3              0.627644       0.516190

                         11       1    3s                0.744008       0.570943

                         12       1   15dx2              0.773675       1.050477
                         12       1   15dxy              0.773675       1.819479
                         12       1   15dxz              0.773675       1.819479
                         12       1   15dy2              0.773675       1.050477
                         12       1   15dyz              0.773675       1.819479
                         12       1   15dz2              0.773675       1.050477

                         13       1   21fx3              1.013690       1.517893
                         13       1   21fx2y             1.013690       3.394112
                         13       1   21fx2z             1.013690       3.394112
                         13       1   21fxy2             1.013690       3.394112
                         13       1   21fxyz             1.013690       5.878775
                         13       1   21fxz2             1.013690       3.394112
                         13       1   21fy3              1.013690       1.517893
                         13       1   21fy2z             1.013690       3.394112
                         13       1   21fyz2             1.013690       3.394112
                         13       1   21fz3              1.013690       1.517893

                         14       1   24hx5              1.038970       0.840048
                         14       1   24hx4y             1.038970       2.520145
                         14       1   24hx4z             1.038970       2.520145
                         14       1   24hx3y2            1.038970       3.849585
                         14       1   24hx3yz            1.038970       6.667677
                         14       1   24hx3z2            1.038970       3.849585
                         14       1   24hx2y3            1.038970       3.849585
                         14       1   24hx2y2z           1.038970       8.607935
                         14       1   24hx2yz2           1.038970       8.607935
                         14       1   24hx2z3            1.038970       3.849585
                         14       1   24hxy4             1.038970       2.520145
                         14       1   24hxy3z            1.038970       6.667677
                         14       1   24hxy2z2           1.038970       8.607935
                         14       1   24hxyz3            1.038970       6.667677
                         14       1   24hxz4             1.038970       2.520145
                         14       1   24hy5              1.038970       0.840048
                         14       1   24hy4z             1.038970       2.520145
                         14       1   24hy3z2            1.038970       3.849585
                         14       1   24hy2z3            1.038970       3.849585
                         14       1   24hyz4             1.038970       2.520145
                         14       1   24hz5              1.038970       0.840048

                         15       1   25ix6              1.128033       0.702885
                         15       1   25ix5y             1.128033       2.331206
                         15       1   25ix5z             1.128033       2.331206
                         15       1   25ix4y2            1.128033       4.037767
                         15       1   25ix4yz            1.128033       6.993617
                         15       1   25ix4z2            1.128033       4.037767
                         15       1   25ix3y3            1.128033       4.777550
                         15       1   25ix3y2z           1.128033      10.682927
                         15       1   25ix3yz2           1.128033      10.682927
                         15       1   25ix3z3            1.128033       4.777550
                         15       1   25ix2y4            1.128033       4.037767
                         15       1   25ix2y3z           1.128033      10.682927
                         15       1   25ix2y2z2          1.128033      13.791599
                         15       1   25ix2yz3           1.128033      10.682927
                         15       1   25ix2z4            1.128033       4.037767
                         15       1   25ixy5             1.128033       2.331206
                         15       1   25ixy4z            1.128033       6.993617
                         15       1   25ixy3z2           1.128033      10.682927
                         15       1   25ixy2z3           1.128033      10.682927
                         15       1   25ixyz4            1.128033       6.993617
                         15       1   25ixz5             1.128033       2.331206
                         15       1   25iy6              1.128033       0.702885
                         15       1   25iy5z             1.128033       2.331206
                         15       1   25iy4z2            1.128033       4.037767
                         15       1   25iy3z3            1.128033       4.777550
                         15       1   25iy2z4            1.128033       4.037767
                         15       1   25iyz5             1.128033       2.331206
                         15       1   25iz6              1.128033       0.702885

                         16       1   10px               1.439023       2.246596
                         16       1   10py               1.439023       2.246596
                         16       1   10pz               1.439023       2.246596

                         17       1   22fx3              1.636060       4.456592
                         17       1   22fx2y             1.636060       9.965243
                         17       1   22fx2z             1.636060       9.965243
                         17       1   22fxy2             1.636060       9.965243
                         17       1   22fxyz             1.636060      17.260306
                         17       1   22fxz2             1.636060       9.965243
                         17       1   22fy3              1.636060       4.456592
                         17       1   22fy2z             1.636060       9.965243
                         17       1   22fyz2             1.636060       9.965243
                         17       1   22fz3              1.636060       4.456592

                         18       1   16dx2              1.666817       4.024511
                         18       1   16dxy              1.666817       6.970658
                         18       1   16dxz              1.666817       6.970658
                         18       1   16dy2              1.666817       4.024511
                         18       1   16dyz              1.666817       6.970658
                         18       1   16dz2              1.666817       4.024511

                         19       1    4s                2.067730       1.228939

                         20       1   17dx2              3.600964      15.493241
                         20       1   17dxy              3.600964      26.835081
                         20       1   17dxz              3.600964      26.835081
                         20       1   17dy2              3.600964      15.493241
                         20       1   17dyz              3.600964      26.835081
                         20       1   17dz2              3.600964      15.493241

                         21       1   11px               4.005485       8.077164
                         21       1   11py               4.005485       8.077164
                         21       1   11pz               4.005485       8.077164

                         22       1    5s                5.971525       2.722539

                         23       1   12px              12.202549      32.508976
                         23       1   12py              12.202549      32.508976
                         23       1   12pz              12.202549      32.508976

                         24       1    6s               16.908352       5.942731

                         25       1    7s               47.451777      12.885446

       Atomic covalent radius [Angstrom]:                                  0.820

       Atomic van der Waals radius [Angstrom]:                             1.920

     The atoms of this atomic kind are PAW atoms (GAPW):
       Hard Gaussian function radius:                                      1.512
       Rho0 radius:                                                        1.512
       Maximum GTO radius used for PAW projector construction:            24.566

     GAPW Soft Basis Set                                 aug-DZVP-MOLOPT-ae_soft

       Number of orbital shell sets:                                           2
       Number of orbital shells:                                              10
       Number of primitive Cartesian functions:                                8
       Number of Cartesian basis functions:                                   35
       Number of spherical basis functions:                                   30
       Norm type:                                                              2

       Normalised Cartesian orbitals:

                        Set   Shell   Orbital            Exponent    Coefficient

                          1       1    2s                0.082134       0.085473
                                                         0.140000       0.049675
                                                         0.279625      -0.030750
                                                         0.881274       0.022030
                                                         4.510873       0.000000

                          1       2    3px               0.082134      -0.004879
                                                         0.140000       0.000000
                                                         0.279625      -0.151722
                                                         0.881274      -0.583957
                                                         4.510873       0.000000
                          1       2    3py               0.082134      -0.004879
                                                         0.140000       0.000000
                                                         0.279625      -0.151722
                                                         0.881274      -0.583957
                                                         4.510873       0.000000
                          1       2    3pz               0.082134      -0.004879
                                                         0.140000       0.000000
                                                         0.279625      -0.151722
                                                         0.881274      -0.583957
                                                         4.510873       0.000000

                          1       3    4px               0.082134       0.052233
                                                         0.140000       0.000000
                                                         0.279625       0.094300
                                                         0.881274      -0.581323
                                                         4.510873       0.000000
                          1       3    4py               0.082134       0.052233
                                                         0.140000       0.000000
                                                         0.279625       0.094300
                                                         0.881274      -0.581323
                                                         4.510873       0.000000
                          1       3    4pz               0.082134       0.052233
                                                         0.140000       0.000000
                                                         0.279625       0.094300
                                                         0.881274      -0.581323
                                                         4.510873       0.000000

                          1       4    5px               0.082134       0.024659
                                                         0.140000       0.076570
                                                         0.279625      -0.053289
                                                         0.881274       0.410720
                                                         4.510873       0.000000
                          1       4    5py               0.082134       0.024659
                                                         0.140000       0.076570
                                                         0.279625      -0.053289
                                                         0.881274       0.410720
                                                         4.510873       0.000000
                          1       4    5pz               0.082134       0.024659
                                                         0.140000       0.076570
                                                         0.279625      -0.053289
                                                         0.881274       0.410720
                                                         4.510873       0.000000

                          1       5    4dx2              0.082134       0.000404
                                                         0.140000       0.000000
                                                         0.279625       0.111576
                                                         0.881274       0.641739
                                                         4.510873       0.000000
                          1       5    4dxy              0.082134       0.000700
                                                         0.140000       0.000000
                                                         0.279625       0.193255
                                                         0.881274       1.111524
                                                         4.510873       0.000000
                          1       5    4dxz              0.082134       0.000700
                                                         0.140000       0.000000
                                                         0.279625       0.193255
                                                         0.881274       1.111524
                                                         4.510873       0.000000
                          1       5    4dy2              0.082134       0.000404
                                                         0.140000       0.000000
                                                         0.279625       0.111576
                                                         0.881274       0.641739
                                                         4.510873       0.000000
                          1       5    4dyz              0.082134       0.000700
                                                         0.140000       0.000000
                                                         0.279625       0.193255
                                                         0.881274       1.111524
                                                         4.510873       0.000000
                          1       5    4dz2              0.082134       0.000404
                                                         0.140000       0.000000
                                                         0.279625       0.111576
                                                         0.881274       0.641739
                                                         4.510873       0.000000

                          1       6    5dx2              0.082134       0.036596
                                                         0.140000      -0.054919
                                                         0.279625      -0.008802
                                                         0.881274      -0.232953
                                                         4.510873       0.000000
                          1       6    5dxy              0.082134       0.063387
                                                         0.140000      -0.095122
                                                         0.279625      -0.015246
                                                         0.881274      -0.403486
                                                         4.510873       0.000000
                          1       6    5dxz              0.082134       0.063387
                                                         0.140000      -0.095122
                                                         0.279625      -0.015246
                                                         0.881274      -0.403486
                                                         4.510873       0.000000
                          1       6    5dy2              0.082134       0.036596
                                                         0.140000      -0.054919
                                                         0.279625      -0.008802
                                                         0.881274      -0.232953
                                                         4.510873       0.000000
                          1       6    5dyz              0.082134       0.063387
                                                         0.140000      -0.095122
                                                         0.279625      -0.015246
                                                         0.881274      -0.403486
                                                         4.510873       0.000000
                          1       6    5dz2              0.082134       0.036596
                                                         0.140000      -0.054919
                                                         0.279625      -0.008802
                                                         0.881274      -0.232953
                                                         4.510873       0.000000

                          1       7    5fx3              0.082134      -0.000468
                                                         0.140000       0.012301
                                                         0.279625       0.033988
                                                         0.881274       0.068820
                                                         4.510873       0.000000
                          1       7    5fx2y             0.082134      -0.001048
                                                         0.140000       0.027506
                                                         0.279625       0.075998
                                                         0.881274       0.153886
                                                         4.510873       0.000000
                          1       7    5fx2z             0.082134      -0.001048
                                                         0.140000       0.027506
                                                         0.279625       0.075998
                                                         0.881274       0.153886
                                                         4.510873       0.000000
                          1       7    5fxy2             0.082134      -0.001048
                                                         0.140000       0.027506
                                                         0.279625       0.075998
                                                         0.881274       0.153886
                                                         4.510873       0.000000
                          1       7    5fxyz             0.082134      -0.001814
                                                         0.140000       0.047643
                                                         0.279625       0.131633
                                                         0.881274       0.266539
                                                         4.510873       0.000000
                          1       7    5fxz2             0.082134      -0.001048
                                                         0.140000       0.027506
                                                         0.279625       0.075998
                                                         0.881274       0.153886
                                                         4.510873       0.000000
                          1       7    5fy3              0.082134      -0.000468
                                                         0.140000       0.012301
                                                         0.279625       0.033988
                                                         0.881274       0.068820
                                                         4.510873       0.000000
                          1       7    5fy2z             0.082134      -0.001048
                                                         0.140000       0.027506
                                                         0.279625       0.075998
                                                         0.881274       0.153886
                                                         4.510873       0.000000
                          1       7    5fyz2             0.082134      -0.001048
                                                         0.140000       0.027506
                                                         0.279625       0.075998
                                                         0.881274       0.153886
                                                         4.510873       0.000000
                          1       7    5fz3              0.082134      -0.000468
                                                         0.140000       0.012301
                                                         0.279625       0.033988
                                                         0.881274       0.068820
                                                         4.510873       0.000000

                          2       1    1s                2.208031      -0.468381
                                                         0.410209      -0.026981
                                                         0.151694      -0.023850

                          2       2    2s                2.208031      -0.246292
                                                         0.410209       0.238157
                                                         0.151694       0.084355

                          2       3    3s                2.208031      -0.073452
                                                         0.410209      -0.458063
                                                         0.151694       0.280188

     AE Potential information for                                            ALL

       Description:                                       All-electron potential
                                          Krack, Parrinello, PCCP 2, 2105 (2000)

       Gaussian exponent of the core charge distribution:               2.655410
       Electronic configuration (s p d ...):                           4   1   0

  2. Atomic kind: H                                     Number of atoms:       1

     Orbital Basis Set                                        aug-DZVP-MOLOPT-ae

       Number of orbital shell sets:                                           1
       Number of orbital shells:                                               5
       Number of primitive Cartesian functions:                                5
       Number of Cartesian basis functions:                                    9
       Number of spherical basis functions:                                    9
       Norm type:                                                              2

       Normalised Cartesian orbitals:

                        Set   Shell   Orbital            Exponent    Coefficient

                          1       1    2s                0.035000       0.000000
                                                         0.111920       0.009149
                                                         0.374948       0.205449
                                                         1.446686       0.373852
                                                        12.248855       0.310040

                          1       2    3s                0.035000       0.000000
                                                         0.111920       0.143650
                                                         0.374948       0.007287
                                                         1.446686      -0.188851
                                                        12.248855      -0.144753

                          1       3    4s                0.035000       0.090463
                                                         0.111920      -0.203934
                                                         0.374948      -0.000376
                                                         1.446686      -0.000051
                                                        12.248855       0.000000

                          1       4    3px               0.035000       0.000000
                                                         0.111920       0.007225
                                                         0.374948       0.280770
                                                         1.446686       0.896497
                                                        12.248855      -0.764411
                          1       4    3py               0.035000       0.000000
                                                         0.111920       0.007225
                                                         0.374948       0.280770
                                                         1.446686       0.896497
                                                        12.248855      -0.764411
                          1       4    3pz               0.035000       0.000000
                                                         0.111920       0.007225
                                                         0.374948       0.280770
                                                         1.446686       0.896497
                                                        12.248855      -0.764411

                          1       5    4px               0.035000       0.011331
                                                         0.111920       0.048737
                                                         0.374948       0.028490
                                                         1.446686       0.035587
                                                        12.248855       0.000000
                          1       5    4py               0.035000       0.011331
                                                         0.111920       0.048737
                                                         0.374948       0.028490
                                                         1.446686       0.035587
                                                        12.248855       0.000000
                          1       5    4pz               0.035000       0.011331
                                                         0.111920       0.048737
                                                         0.374948       0.028490
                                                         1.446686       0.035587
                                                        12.248855       0.000000

     RI Auxiliary Basis Set             RI_aug-DZVP-MOLOPT-ae_N_RI_047_s_p_d_f_g

       Number of orbital shell sets:                                          17
       Number of orbital shells:                                              17
       Number of primitive Cartesian functions:                               17
       Number of Cartesian basis functions:                                   53
       Number of spherical basis functions:                                   47
       Norm type:                                                              2

       Normalised Cartesian orbitals:

                        Set   Shell   Orbital            Exponent    Coefficient

                          1       1    1s                0.236911       0.242019

                          2       1    8px               0.347892       0.380843
                          2       1    8py               0.347892       0.380843
                          2       1    8pz               0.347892       0.380843

                          3       1    2s                0.423897       0.374417

                          4       1    9px               0.493166       0.589089
                          4       1    9py               0.493166       0.589089
                          4       1    9pz               0.493166       0.589089

                          5       1   14dx2              0.625366       0.723843
                          5       1   14dxy              0.625366       1.253733
                          5       1   14dxz              0.625366       1.253733
                          5       1   14dy2              0.625366       0.723843
                          5       1   14dyz              0.625366       1.253733
                          5       1   14dz2              0.625366       0.723843

                          6       1   10px               0.699103       0.911206
                          6       1   10py               0.699103       0.911206
                          6       1   10pz               0.699103       0.911206

                          7       1    3s                0.758464       0.579244

                          8       1   15dx2              0.896802       1.360281
                          8       1   15dxy              0.896802       2.356075
                          8       1   15dxz              0.896802       2.356075
                          8       1   15dy2              0.896802       1.360281
                          8       1   15dyz              0.896802       2.356075
                          8       1   15dz2              0.896802       1.360281

                          9       1   11px               0.991036       1.409457
                          9       1   11py               0.991036       1.409457
                          9       1   11pz               0.991036       1.409457

                         10       1   17fx3              1.198110       2.210915
                         10       1   17fx2y             1.198110       4.943756
                         10       1   17fx2z             1.198110       4.943756
                         10       1   17fxy2             1.198110       4.943756
                         10       1   17fxyz             1.198110       8.562836
                         10       1   17fxz2             1.198110       4.943756
                         10       1   17fy3              1.198110       2.210915
                         10       1   17fy2z             1.198110       4.943756
                         10       1   17fyz2             1.198110       4.943756
                         10       1   17fz3              1.198110       2.210915

                         11       1   16dx2              1.286053       2.556305
                         11       1   16dxy              1.286053       4.427650
                         11       1   16dxz              1.286053       4.427650
                         11       1   16dy2              1.286053       2.556305
                         11       1   16dyz              1.286053       4.427650
                         11       1   16dz2              1.286053       2.556305

                         12       1    4s                1.357095       0.896123

                         13       1   12px               1.404875       2.180155
                         13       1   12py               1.404875       2.180155
                         13       1   12pz               1.404875       2.180155

                         14       1   13px               1.991527       3.372273
                         14       1   13py               1.991527       3.372273
                         14       1   13pz               1.991527       3.372273

                         15       1    5s                2.428204       1.386354

                         16       1    6s                4.344704       2.144768

                         17       1    7s                7.773833       3.318077

       Atomic covalent radius [Angstrom]:                                  0.320

       Atomic van der Waals radius [Angstrom]:                             1.090

     The atoms of this atomic kind are PAW atoms (GAPW):
       Hard Gaussian function radius:                                      1.200
       Rho0 radius:                                                        1.200
       Maximum GTO radius used for PAW projector construction:            24.566

     GAPW Soft Basis Set                                 aug-DZVP-MOLOPT-ae_soft

       Number of orbital shell sets:                                           1
       Number of orbital shells:                                               5
       Number of primitive Cartesian functions:                                4
       Number of Cartesian basis functions:                                    9
       Number of spherical basis functions:                                    9
       Norm type:                                                              2

       Normalised Cartesian orbitals:

                        Set   Shell   Orbital            Exponent    Coefficient

                          1       1    2s                0.035000       0.000000
                                                         0.111920       0.009149
                                                         0.374948       0.205449
                                                         1.446686       0.373852

                          1       2    3s                0.035000       0.000000
                                                         0.111920       0.143650
                                                         0.374948       0.007287
                                                         1.446686      -0.188851

                          1       3    4s                0.035000       0.090463
                                                         0.111920      -0.203934
                                                         0.374948      -0.000376
                                                         1.446686      -0.000051

                          1       4    3px               0.035000       0.000000
                                                         0.111920       0.007225
                                                         0.374948       0.280770
                                                         1.446686       0.896497
                          1       4    3py               0.035000       0.000000
                                                         0.111920       0.007225
                                                         0.374948       0.280770
                                                         1.446686       0.896497
                          1       4    3pz               0.035000       0.000000
                                                         0.111920       0.007225
                                                         0.374948       0.280770
                                                         1.446686       0.896497

                          1       5    4px               0.035000       0.011331
                                                         0.111920       0.048737
                                                         0.374948       0.028490
                                                         1.446686       0.035587
                          1       5    4py               0.035000       0.011331
                                                         0.111920       0.048737
                                                         0.374948       0.028490
                                                         1.446686       0.035587
                          1       5    4pz               0.035000       0.011331
                                                         0.111920       0.048737
                                                         0.374948       0.028490
                                                         1.446686       0.035587

     AE Potential information for                                            ALL

       Description:                                       All-electron potential
                                          Krack, Parrinello, PCCP 2, 2105 (2000)

       Gaussian exponent of the core charge distribution:              12.500000
       Electronic configuration (s p d ...):                           1   0   0


 MOLECULE KIND INFORMATION


 All atoms are their own molecule, skipping detailed information


 TOTAL NUMBERS AND MAXIMUM NUMBERS

  Total number of            - Atomic kinds:                                   2
                             - Atoms:                                          2
                             - Shell sets:                                     3
                             - Shells:                                        15
                             - Primitive Cartesian functions:                 17
                             - Cartesian basis functions:                     44
                             - Spherical basis functions:                     39

  Maximum angular momentum of the orbital basis functions:                     3


 MODULE QUICKSTEP: ATOMIC COORDINATES IN ANGSTROM

   Atom Kind Element         X             Y             Z       Z(eff)     Mass
      1    1 B     5     15.616628     15.000000     15.000000   5.0000  10.8110
      2    2 H     1     14.383372     15.000000     15.000000   1.0000   1.0079



 SCF PARAMETERS         Density guess:                                    ATOMIC
                        --------------------------------------------------------
                        max_scf:                                             500
                        max_scf_history:                                       0
                        max_diis:                                              4
                        --------------------------------------------------------
                        eps_scf:                                        1.00E-06
                        eps_scf_history:                                0.00E+00
                        eps_diis:                                       1.00E-01
                        eps_eigval:                                     1.00E-05
                        --------------------------------------------------------
                        level_shift [a.u.]:                             0.000000
                        added MOs                                        36    0
                        --------------------------------------------------------
                        Mixing method:                            BROYDEN_MIXING
                                                charge density mixing in g-space
                        --------------------------------------------------------
                        No outer SCF

 PW_GRID| Information for grid number                                          1
 PW_GRID| Grid distributed over                                    24 processors
 PW_GRID| Real space group dimensions                                    24    1
 PW_GRID| the grid is blocked:                                                NO
 PW_GRID| Cutoff [a.u.]                                                    250.0
 PW_GRID| spherical cutoff:                                                   NO
 PW_GRID|   Bounds   1           -202     202                Points:         405
 PW_GRID|   Bounds   2           -202     202                Points:         405
 PW_GRID|   Bounds   3           -202     202                Points:         405
 PW_GRID| Volume element (a.u.^3)  0.2743E-02     Volume (a.u.^3)    182205.0337
 PW_GRID| Grid span                                                    FULLSPACE
 PW_GRID|   Distribution                         Average         Max         Min
 PW_GRID|   G-Vectors                          2767921.9     2768175     2767770
 PW_GRID|   G-Rays                                6834.4        6835        6834
 PW_GRID|   Real Space Points                  2767921.9     2788425     2624400

 PW_GRID| Information for grid number                                          2
 PW_GRID| Number of the reference grid                                         1
 PW_GRID| Grid distributed over                                    24 processors
 PW_GRID| Real space group dimensions                                    24    1
 PW_GRID| the grid is blocked:                                                NO
 PW_GRID| Cutoff [a.u.]                                                     83.3
 PW_GRID| spherical cutoff:                                                   NO
 PW_GRID|   Bounds   1           -120     119                Points:         240
 PW_GRID|   Bounds   2           -120     119                Points:         240
 PW_GRID|   Bounds   3           -120     119                Points:         240
 PW_GRID| Volume element (a.u.^3)  0.1318E-01     Volume (a.u.^3)    182205.0337
 PW_GRID| Grid span                                                    FULLSPACE
 PW_GRID|   Distribution                         Average         Max         Min
 PW_GRID|   G-Vectors                           576000.0      576240      575760
 PW_GRID|   G-Rays                                2400.0        2401        2399
 PW_GRID|   Real Space Points                   576000.0      576000      576000

 PW_GRID| Information for grid number                                          3
 PW_GRID| Number of the reference grid                                         1
 PW_GRID| Grid distributed over                                    24 processors
 PW_GRID| Real space group dimensions                                    24    1
 PW_GRID| the grid is blocked:                                                NO
 PW_GRID| Cutoff [a.u.]                                                     27.8
 PW_GRID| spherical cutoff:                                                   NO
 PW_GRID|   Bounds   1            -67      67                Points:         135
 PW_GRID|   Bounds   2            -67      67                Points:         135
 PW_GRID|   Bounds   3            -67      67                Points:         135
 PW_GRID| Volume element (a.u.^3)  0.7406E-01     Volume (a.u.^3)    182205.0337
 PW_GRID| Grid span                                                    FULLSPACE
[...]
 Laino, R. Z. Khaliullin, O. Schuett, F. Schiffmann, D. Golze, J. Wilhelm, S. 
 Chulkov, M. H. Bani-Hashemian, V. Weber, U. Borstnik, M. Taillefumier, A. S. 
 Jakobovits, A. Lazzaro, H. Pabst, T. Mueller, R. Schade, M. Guidon, S. 
 Andermatt, N. Holmberg, G. K. Schenter, A. Hehn, A. Bussy, F. Belleflamme, G. 
 Tabacchi, A. Gloess, M. Lass, I. Bethune, C. J. Mundy, C. Plessl, M. Watkins, 
 J. VandeVondele, M. Krack, J. Hutter.
 J. Chem. Phys. 152, 194103 (2020).
 CP2K: An electronic structure and molecular dynamics software package - 
 Quickstep: Efficient and accurate electronic structure calculations.
 https://doi.org/10.1063/5.0007045

 J. Wilhelm, D. Golze, L. Talirz, J. Hutter, C. A. Pignedoli.
 J. Phys. Chem. Lett. 9, 306-312 (2018).
 Toward GW calculations on thousands of atoms.
 https://doi.org/10.1021/acs.jpclett.7b02740

 J. Wilhelm, J. Hutter.
 Phys. Rev. B 95, 235123 (2017).
 Periodic GW calculations in the Gaussian and plane-waves scheme.
 https://doi.org/10.1103/PhysRevB.95.235123

 O. Schuett, P. Messmer, J. Hutter, J. VandeVondele.
 Electronic Structure Calculations on Graphics Processing Units, 173-190 (2016).
 GPU-Accelerated Sparse Matrix-Matrix Multiplication for Linear Scaling Density 
 Functional Theory.
 https://doi.org/10.1002/9781118670712.ch8

 J. Wilhelm, M. Del Ben, J. Hutter.
 J. Chem. Theory Comput. 12, 3623-3635 (2016).
 GW in the Gaussian and plane waves scheme with application to linear acenes.
 https://doi.org/10.1021/acs.jctc.6b00380

 M. Del Ben, O. Schuett, T. Wentz, P. Messmer, J. Hutter, J. VandeVondele.
 Comput. Phys. Commun. 187, 120-129 (2015).
 Enabling simulation at the fifth rung of DFT: Large scale RPA calculations with 
 excellent time to solution.
 https://doi.org/10.1016/j.cpc.2014.10.021

 J. Hutter, M. Iannuzzi, F. Schiffmann, J. VandeVondele.
 WIREs Comput Mol Sci. 4, 15-25 (2014).
 CP2K: atomistic simulations of condensed matter systems.
 https://doi.org/10.1002/wcms.1159

 U. Borstnik, J. VandeVondele, V. Weber, J. Hutter.
 Parallel Comput. 40, 47-58 (2014).
 Sparse matrix multiplication: The distributed block-compressed sparse row 
 library.
 https://doi.org/10.1016/j.parco.2014.03.012

 M. Del Ben, J. Hutter, J. VandeVondele.
 J. Chem. Theory Comput. 9, 2654-2671 (2013).
 Electron Correlation in the Condensed Phase from a Resolution of Identity 
 Approach Based on the Gaussian and Plane Waves Scheme.
 https://doi.org/10.1021/ct4002202

 M. Del Ben, J. Hutter, J. VandeVondele.
 J. Chem. Theory Comput. 8, 4177-4188 (2012).
 Second-Order Moller-Plesset Perturbation Theory in the Condensed Phase: An 
 Efficient and Massively Parallel Gaussian and Plane Waves Approach.
 https://doi.org/10.1021/ct300531w

 M. Guidon, J. Hutter, J. VandeVondele.
 J. Chem. Theory Comput. 5, 3010-3021 (2009).
 Robust Periodic Hartree-Fock Exchange for Large-Scale Simulations Using 
 Gaussian Basis Sets.
 https://doi.org/10.1021/ct900494g

 M. Guidon, F. Schiffmann, J. Hutter, J. VandeVondele.
 J. Chem. Phys. 128, 214104 (2008).
 Ab initio molecular dynamics using hybrid density functionals.
 https://doi.org/10.1063/1.2931945

 L. Genovese, T. Deutsch, S. Goedecker.
 J. Chem. Phys. 127, 054704 (2007).
 Efficient and accurate three-dimensional Poisson solver for surface problems.
 https://doi.org/10.1063/1.2754685

 J. VandeVondele, J. Hutter.
 J. Chem. Phys. 127, 114105 (2007).
 Gaussian basis sets for accurate calculations on molecular systems in gas and 
 condensed phases.
 https://doi.org/10.1063/1.2770708

 L. Genovese, T. Deutsch, A. Neelov, S. Goedecker, G. Beylkin.
 J. Chem. Phys. 125, 074105 (2006).
 Efficient solution of Poisson's equation with free boundary conditions.
 https://doi.org/10.1063/1.2335442

 M. Frigo, S. G. Johnson.
 Proc. IEEE 93, 216-231 (2005).
 The design and implementation of FFTW3.
 https://doi.org/10.1109/JPROC.2004.840301

 M. Krack, M. Parrinello.
 Phys. Chem. Chem. Phys. 2, 2105-2112 (2000).
 All-electron ab-initio molecular dynamics.
 https://doi.org/10.1039/b001167n

 G. Lippert, J. Hutter, M. Parrinello.
 Theor. Chem. Acc. 103, 124-140 (1999).
 The Gaussian and augmented-plane-wave density functional method for ab initio 
 molecular dynamics simulations.
 https://doi.org/10.1007/s002140050523

 J. P. Perdew, K. Burke, M. Ernzerhof.
 Phys. Rev. Lett. 77, 3865-3868 (1996).
 Generalized gradient approximation made simple.
 https://doi.org/10.1103/PhysRevLett.77.3865


 -------------------------------------------------------------------------------
 -                                                                             -
 -                                T I M I N G                                  -
 -                                                                             -
 -------------------------------------------------------------------------------
 SUBROUTINE                       CALLS  ASD         SELF TIME        TOTAL TIME
                                MAXIMUM       AVERAGE  MAXIMUM  AVERAGE  MAXIMUM
 CP2K                                 1  1.0    0.047    0.074  298.570  298.570
 qs_energies                          1  2.0    0.001    0.001  297.266  297.499
 scf_env_do_scf                       1  3.0    0.000    0.000  292.500  292.501
 scf_env_do_scf_inner_loop           51  4.0    0.001    0.004  292.500  292.500
 qs_ks_build_kohn_sham_matrix        52  7.0    0.009    0.010  223.969  223.976
 qs_ks_update_qs_env                 51  5.0    0.000    0.000  221.367  221.374
 rebuild_ks_matrix                   51  6.0    0.000    0.000  221.364  221.370
 fft_wrap_pw1pw2                   1083  9.9    0.026    0.031  126.131  127.148
 fft_wrap_pw1pw2_250                771 11.1    5.528    6.140  122.209  123.423
 fft3d_ps                          1083 11.9   54.427   56.576   99.460  100.659
 pw_poisson_solve                    52  8.0    2.284    2.344   86.060   86.083
 qs_vxc_create                       52  8.0    0.001    0.001   75.413   75.413
 xc_vxc_pw_create                    51  9.0    1.427    1.509   75.412   75.412
 ps_wavelet_solve                    52  9.0   48.067   51.107   56.997   57.103
 xc_pw_derive                       306 11.0    0.004    0.005   54.600   56.171
 mp_alltoall_d54                     52 10.0    5.699   44.938    5.699   44.938
 gspace_mixing                       50  5.0    1.036    1.050   38.326   38.326
 xc_pw_divergence                    51 10.0    0.002    0.003   36.533   37.882
 xc_rho_set_and_dset_create          51 10.0    1.034    1.242   36.741   37.679
 mp_alltoall_z22v                  1083 13.9   28.059   36.436   28.059   36.436
 qs_rho_update_rho_low               52  5.0    0.001    0.001   33.163   33.163
 calculate_rho_elec                  52  6.0    1.153    1.169   33.117   33.117
 broyden_mixing                      50  6.0   28.133   28.556   29.060   29.275
 x_to_yz                            566 13.1   11.521   11.657   25.188   25.833
 yz_to_x                            517 12.8    5.437    6.541   19.829   25.387
 density_rs2pw                       52  7.0    0.004    0.004   24.380   24.575
 sum_up_and_integrate                52  8.0    0.001    0.001   17.719   17.745
 integrate_v_rspace                  52  9.0    0.001    0.002   17.401   17.453
 potential_pw2rs                     52 10.0    0.049    0.055   16.959   17.021
 prepare_gapw_den                    52  8.0    0.001    0.001   14.558   14.724
 hfx_ks_matrix                       52  8.0    0.002    0.003   13.983   14.047
 integrate_four_center               52  9.0    1.142    2.298   13.980   14.044
 put_rho0_on_grid                    52  9.0    1.074    1.092   13.362   13.528
 mp_sync                            677  9.3    9.237   10.648    9.237   10.648
 transfer_pw2rs                     261 10.5    0.004    0.005   10.206   10.250
 pw_scatter_p                       566 12.1    9.047    9.210    9.047    9.210
 integrate_four_center_main          52 10.0    0.016    0.110    0.386    8.944
 transfer_rs2pw                     261  8.4    0.007    0.009    8.733    8.928
 integrate_four_center_bin         3906 11.0    0.370    8.834    0.370    8.834
 pw_gather_p                        517 11.8    7.581    8.161    7.581    8.161
 xc_functional_eval                 255 10.9    0.001    0.002    7.334    8.012
 pbe_lda_eval                       255 11.9    7.333    8.012    7.333    8.012
 mp_waitany                        8792 11.5    7.162    7.803    7.162    7.803
 transfer_pw2rs_250                 105 10.9    2.756    2.922    7.518    7.694
 grid_collocate_task_list            52  7.0    7.184    7.512    7.184    7.512
 transfer_rs2pw_250                 105 10.0    2.899    3.025    6.542    6.752
 pw_derive                          462 11.3    6.145    6.398    6.145    6.398
 mp_sum_d                          1386  5.7    4.097    5.779    4.097    5.779
 integrate_vhg0_rspace               52  8.0    0.028    0.034    4.707    4.717
 fft_wrap_pw1pw2_90                 104 10.5    0.158    0.236    3.211    3.737
 mp2_main                             1  3.0    0.000    0.001    3.484    3.719
 mp_alltoall_d45                     53 10.0    2.676    3.561    2.676    3.561
 pw_copy                            775 10.6    3.289    3.524    3.289    3.524
 cp2k_distribution_to_z_slices       52  9.0    2.044    2.117    3.218    3.441
 pw_poisson_set                      53  8.9    0.002    0.002    3.078    3.101
 pw_copy_to_array                   517 11.8    2.735    3.042    2.735    3.042
 calc_screening_functions             1 10.0    2.642    2.872    2.773    3.003
 mp_alltoall_d11v                  1072  9.6    2.230    2.974    2.230    2.974
 compute_vec_Sigma_x_minus_vxc_       1  4.0    0.000    0.000    2.609    2.609
 pw_axpy                            515  9.3    2.276    2.483    2.276    2.483
 rs_grid_zero                       262 11.1    2.349    2.418    2.349    2.418
 pw_integral_ab_c1d_c1d_gs           52  9.0    1.552    1.723    1.909    2.004
 calculate_vxc_atom                  52  8.0    0.023    0.195    1.980    1.980
 pw_copy_from_array                 566 12.1    1.565    1.873    1.565    1.873
 pw_poisson_rebuild                  52  9.0    0.000    0.000    1.810    1.841
 ps_wavelet_create                    1 10.0    0.000    0.000    1.810    1.841
 RS_z_slice_distribution              1 11.0    1.663    1.715    1.810    1.841
 gaVxcgb_GC                         102  9.0    0.071    1.705    0.071    1.705
 transfer_pw2rs_90                   52 12.0    0.446    0.485    1.399    1.499
 mp_sum_dv                         1987 11.3    1.179    1.320    1.179    1.320
 calculate_rho_atom                 104  9.0    0.202    1.168    0.202    1.168
 transfer_rs2pw_90                   52  9.0    0.359    0.386    1.070    1.121
 pw_zero                            308 10.3    1.045    1.105    1.045    1.105
 mp_sum_dm                          368  7.6    0.847    1.055    0.847    1.055
 transfer_pw2rs_30                   52 12.0    0.589    0.621    0.984    1.048
 init_scf_run                         1  3.0    0.000    0.000    1.040    1.041
 mp_isend_dv                       8911 11.6    0.729    1.040    0.729    1.040
 scf_env_initial_rho_setup            1  4.0    0.000    0.000    1.034    1.035
 mp_waitall_1                     10276 12.1    0.690    0.952    0.690    0.952
 transfer_rs2pw_30                   52  9.0    0.456    0.476    0.882    0.903
 qs_init_subsys                       1  2.0    0.004    0.004    0.864    0.865
 qs_env_setup                         1  3.0    0.000    0.000    0.853    0.854
 qs_env_rebuild_pw_env                2  3.5    0.000    0.000    0.852    0.853
 pw_env_rebuild                       1  5.0    0.001    0.001    0.851    0.853
 pw_grid_setup                        4  6.0    0.000    0.000    0.841    0.843
 pw_grid_setup_internal               4  7.0    0.019    0.023    0.841    0.842
 Vh_1c_gg_integrals                  52  8.0    0.011    0.182    0.307    0.782
 scale_and_distribute               104 10.0    0.704    0.729    0.704    0.729
 mp_irecv_dm3                      1256 11.5    0.370    0.705    0.370    0.705
 mp2_gpw_main                         1  4.0    0.000    0.000    0.691    0.702
 mp_isend_dm3                      1256 11.5    0.340    0.682    0.340    0.682
 pw_grid_sort                         4  8.0    0.472    0.478    0.668    0.676
 mp_max_i                           565  2.6    0.383    0.628    0.383    0.628
 mp_sendrecv_dv                    2392 10.0    0.572    0.604    0.572    0.604
 fft_wrap_pw1pw2_30                 104 10.5    0.025    0.029    0.556    0.571
 rpa_ri_compute_en                    1  5.0    0.000    0.001    0.471    0.471
 rpa_num_int                          1  6.0    0.001    0.001    0.467    0.468
 rs_gather_matrices                  52 10.0    0.001    0.003    0.360    0.444
 grid_integrate_task_list            52 10.0    0.080    0.421    0.080    0.421
 mp_sum_i                            17  9.9    0.234    0.397    0.234    0.397
 restraint_control                    1  2.0    0.000    0.000    0.233    0.397
 mp2_main_alloc_hfx                   1  4.0    0.164    0.397    0.164    0.397
 qs_scf_new_mos                      51  5.0    0.001    0.001    0.358    0.359
 pw_scale                           205  9.5    0.303    0.350    0.303    0.350
 transfer_pw2rs_10                   52 12.0    0.128    0.132    0.302    0.320
 mp_sum_l                           916  6.0    0.253    0.318    0.253    0.318
 compute_GW_self_energy             100  7.0    0.001    0.001    0.297    0.309
 mixing_init                          1  5.0    0.290    0.297    0.297    0.297
 integrate_four_center_load          52 10.0    0.001    0.001    0.233    0.295
 hfx_load_balance                     1 11.0    0.000    0.000    0.233    0.294
 hfx_load_balance_range               1 12.0    0.000    0.000    0.231    0.292
 mp_isendrecv_dv                   4784 12.0    0.156    0.279    0.156    0.279
 compute_GW_self_energy_deep        100  8.0    0.128    0.138    0.249    0.260
 transfer_rs2pw_10                   52  9.0    0.086    0.090    0.232    0.240
 powell_optimize                  92455 11.0    0.228    0.230    0.228    0.230
 calc_pair_dist_radii                 1 10.0    0.103    0.104    0.200    0.202
 mp2_ri_gpw_compute_in                1  5.0    0.000    0.000    0.199    0.199
 sort_shells                          4  9.0    0.196    0.199    0.196    0.199
 mp2_ri_gpw_compute_in_loop           1  6.0    0.000    0.000    0.194    0.194
 cp_fm_syevd                         57  6.9    0.000    0.000    0.187    0.187
 scf_post_calculation_gpw             1  3.0    0.000    0.000    0.184    0.186
 eigensolver_symm                    52  6.0    0.002    0.002    0.185    0.186
 write_available_results              1  4.0    0.000    0.000    0.184    0.186
 write_mo_free_results                1  5.0    0.031    0.037    0.184    0.186
 xc_pw_smooth                        51 10.0    0.000    0.000    0.136    0.180
 parallel_gemm_fm                   321  8.7    0.000    0.001    0.174    0.176
 parallel_gemm_fm_gemm              321  9.7    0.000    0.001    0.174    0.176
 cp_fm_gemm                         321 10.7    0.173    0.175    0.173    0.175
 contract_B_L                         4  7.0    0.001    0.001    0.143    0.161
 cp_fm_redistribute_end              57  7.9    0.086    0.153    0.087    0.154
 fft_wrap_pw1pw2_10                 104 10.5    0.006    0.007    0.129    0.142
 cp_fm_syevd_base                    57  7.9    0.067    0.134    0.067    0.134
 calculate_dm_sparse                 51  6.0    0.000    0.001    0.123    0.125
 mp_cart_create                     338 10.6    0.106    0.124    0.107    0.125
 cp_dbcsr_plus_fm_fm_t               51  7.0    0.001    0.001    0.123    0.124
 dbcsr_multiply_generic             112  8.1    0.005    0.005    0.117    0.120
 rpa_num_int_RPA_matrix_operati     100  7.0    0.001    0.002    0.119    0.119
 dbt_pgrid_create_expert             80 10.7    0.000    0.000    0.095    0.113
 mp2_eri_3c_integrate                 1  7.0    0.000    0.000    0.022    0.109
 integrate_set_3c                    35  8.0    0.020    0.103    0.022    0.109
 pw_grid_assign                       4  8.0    0.103    0.105    0.106    0.107
 create_qs_kind_set                   1  2.0    0.000    0.000    0.086    0.086
 read_qs_kind                         2  3.0    0.031    0.036    0.086    0.086
 mp_irecv_dv                       8941 11.6    0.062    0.086    0.062    0.086
 hirshfeld_integration                1  6.0    0.000    0.001    0.076    0.079
 calc_mat_Q                         100  8.0    0.000    0.000    0.076    0.078
 contract_S_to_Q                    100  9.0    0.000    0.000    0.075    0.077
 calculate_hirshfeld_normalizat       1  6.0    0.000    0.002    0.070    0.073
 vxc_of_r_new                       204  9.0    0.000    0.010    0.003    0.073
 copy_dbcsr_to_fm                    90  6.8    0.002    0.002    0.064    0.065
 make_m2s                           224  9.1    0.003    0.003    0.059    0.062
 dbcsr_complete_redistribute        196  8.5    0.008    0.010    0.061    0.061
 parser_read_line                  5168  4.0    0.002    0.002    0.054    0.058
 qs_energies_init_hamiltonians        1  3.0    0.000    0.000    0.057    0.057
 parser_read_line_low                12  5.0    0.007    0.021    0.053    0.056
 broadcast_input_information         12  6.0    0.014    0.016    0.046    0.053
 build_core_hamiltonian_matrix        1  4.0    0.000    0.000    0.053    0.053
 overlap_condnum                      1  5.0    0.000    0.000    0.051    0.051
 cp_fm_to_fm_submat_general         112 10.1    0.044    0.047    0.044    0.047
 calculate_rho_atom_coeff            52  6.0    0.011    0.023    0.046    0.046
 cp_fm_cholesky_invert              101  8.0    0.038    0.044    0.038    0.044
 offload_free_buffer                 60  8.2    0.031    0.041    0.031    0.041
 dbt_total                            8  8.0    0.000    0.000    0.040    0.040
 compute_Erpa_by_freq_int           100  8.0    0.001    0.001    0.038    0.039
 multiply_cannon                    112  9.1    0.008    0.009    0.037    0.038
 cp_fm_cholesky_decompose           102  9.0    0.037    0.037    0.037    0.037
 start_bse_calculation                1  7.0    0.000    0.000    0.036    0.037
 dbt_contract                         4  9.0    0.001    0.001    0.036    0.036
 pw_grid_remap                        4  8.0    0.014    0.014    0.029    0.035
 mp_comm_split_direct                48 14.5    0.023    0.034    0.023    0.034
 arnoldi_conjugate_gradient           5  6.0    0.001    0.001    0.034    0.034
 copy_fm_to_dbcsr                   106  8.1    0.000    0.001    0.032    0.033
 cp_fm_redistribute_start            57  7.9    0.025    0.026    0.032    0.033
 update_ks_atom                      52  8.0    0.004    0.012    0.025    0.033
 integrate_four_center_getP          52 10.0    0.003    0.003    0.024    0.032
 dbcsr_finalize                    1448 10.7    0.006    0.009    0.022    0.031
 dbcsr_desymmetrize_deep             92  7.7    0.002    0.002    0.030    0.030
 -------------------------------------------------------------------------------

 The number of warnings for this run is : 1
 
 -------------------------------------------------------------------------------
  **** **** ******  **  PROGRAM ENDED AT                 2025-03-08 03:12:57.279
 ***** ** ***  *** **   PROGRAM RAN ON                              i04r10c02s12
 **    ****   ******    PROGRAM RAN BY                                   di38fab
 ***** **    ** ** **   PROGRAM PROCESS ID                                735704
  **** **  *******  **  PROGRAM STOPPED IN /hppfs/scratch/04/di38fab/05_MOL/W4-1
                                           1+ALK/bh/DZVP
