 DBCSR| CPU Multiplication driver                                           BLAS (U)
 DBCSR| Multrec recursion limit                                              512 (U)
 DBCSR| Multiplication stack size                                           1000 (D)
 DBCSR| Maximum elements for images                                    UNLIMITED (U)
 DBCSR| Multiplicative factor virtual images                                   1 (U)
 DBCSR| Use multiplication densification                                       T (D)
 DBCSR| Multiplication size stacks                                             3 (U)
 DBCSR| Use memory pool for CPU allocation                                     F (U)
 DBCSR| Number of 3D layers                                               SINGLE (U)
 DBCSR| Use MPI memory allocation                                              F (U)
 DBCSR| Use RMA algorithm                                                      F (U)
 DBCSR| Use Communication thread                                               T (U)
 DBCSR| Communication thread load                                             75 (D)
 DBCSR| MPI: My process id                                                     0
 DBCSR| MPI: Number of processes                                              24
 DBCSR| OMP: Current number of threads                                         4
 DBCSR| OMP: Max number of threads                                             4
 DBCSR| Split modifier for TAS multiplication algorithm                  1.0E+00 (U)


  **** **** ******  **  PROGRAM STARTED AT               2025-03-13 06:33:01.399
 ***** ** ***  *** **   PROGRAM STARTED ON                          i01r11c02s11
 **    ****   ******    PROGRAM STARTED BY                               di38fab
 ***** **    ** ** **   PROGRAM PROCESS ID                                296409
  **** **  *******  **  PROGRAM STARTED IN /hppfs/scratch/04/di38fab/05_MOL/W4-1
                                           1+ALK/c2/SZV/GW+BSE/1e-3

 CP2K| version string:                 CP2K version 2025.1 (Development Version)
 CP2K| source code revision number:                                  git:d2e611a
 CP2K| cp2kflags: omp libint fftw3 libxc parallel scalapack max_contr=4         
 CP2K| is freely available from                            https://www.cp2k.org/
 CP2K| Program compiled at                       Thu 06 Mar 2025 05:09:20 PM CET
 CP2K| Program compiled on                                               login02
 CP2K| Program compiled for                                        Supermuc-foss
 CP2K| Data directory path                  /hppfs/work/pn36zo/di38fab/cp2k/data
 CP2K| Input file name                                                    GW.inp

 GLOBAL| Force Environment number                                              1
 GLOBAL| Basis set file name            /hppfs/scratch/04/di38fab/04_TMD/BASIS_A
 GLOBAL| Potential file name            /hppfs/work/pn36zo/di38fab/cp2k/data/ALL
 GLOBAL| MM Potential file name                                     MM_POTENTIAL
 GLOBAL| Coordinate file name                                      __STD_INPUT__
 GLOBAL| Method name                                                        CP2K
 GLOBAL| Project name                                                       MoS2
 GLOBAL| Run type                                                         ENERGY
 GLOBAL| FFT library                                                       FFTW3
 GLOBAL| Diagonalization library                                       ScaLAPACK
 GLOBAL| DGEMM library                                                      BLAS
 GLOBAL| Orthonormality check for eigenvectors                          DISABLED
 GLOBAL| Matrix multiplication library                                 ScaLAPACK
 GLOBAL| All-to-all communication in single precision                          F
 GLOBAL| FFTs using library dependent lengths                                  F
 GLOBAL| Grid backend                                                       AUTO
 GLOBAL| Global print level                                               MEDIUM
 GLOBAL| MPI I/O enabled                                                       T
 GLOBAL| Total number of message passing processes                            24
 GLOBAL| Number of threads for this process                                    4
 GLOBAL| This output is from process                                           0
 GLOBAL| OpenMP stack size per thread (OMP_STACKSIZE)                    default
 GLOBAL| CPU model name             Intel(R) Xeon(R) Platinum 8174 CPU @ 3.10GHz

 MEMORY| system memory details [Kb]
 MEMORY|                        rank 0           min           max       average
 MEMORY| MemTotal             98436660      98436648      98436660      98436654
 MEMORY| MemFree              83779916      83779916      84131932      83955924
 MEMORY| Buffers                     0             0             0             0
 MEMORY| Cached                2484392       2484392       2501076       2492734
 MEMORY| Slab                  1237148       1237148       1253076       1245112
 MEMORY| SReclaimable           270572        270572        277796        274184
 MEMORY| MemLikelyFree        86534880      86534880      86910804      86722842


 *** Fundamental physical constants (SI units) ***

 *** Literature: B. J. Mohr and B. N. Taylor,
 ***             CODATA recommended values of the fundamental physical
 ***             constants: 2006, Web Version 5.1
 ***             http://physics.nist.gov/constants

 Speed of light in vacuum [m/s]                             2.99792458000000E+08
 Magnetic constant or permeability of vacuum [N/A**2]       1.25663706143592E-06
 Electric constant or permittivity of vacuum [F/m]          8.85418781762039E-12
 Planck constant (h) [J*s]                                  6.62606896000000E-34
 Planck constant (h-bar) [J*s]                              1.05457162825177E-34
 Elementary charge [C]                                      1.60217648700000E-19
 Electron mass [kg]                                         9.10938215000000E-31
 Electron g factor [ ]                                     -2.00231930436220E+00
 Proton mass [kg]                                           1.67262163700000E-27
 Fine-structure constant                                    7.29735253760000E-03
 Rydberg constant [1/m]                                     1.09737315685270E+07
 Avogadro constant [1/mol]                                  6.02214179000000E+23
 Boltzmann constant [J/K]                                   1.38065040000000E-23
 Atomic mass unit [kg]                                      1.66053878200000E-27
 Bohr radius [m]                                            5.29177208590000E-11

 *** Conversion factors ***

 [u] -> [a.u.]                                              1.82288848426455E+03
 [Angstrom] -> [Bohr] = [a.u.]                              1.88972613288564E+00
 [a.u.] = [Bohr] -> [Angstrom]                              5.29177208590000E-01
 [a.u.] -> [s]                                              2.41888432650478E-17
 [a.u.] -> [fs]                                             2.41888432650478E-02
 [a.u.] -> [J]                                              4.35974393937059E-18
 [a.u.] -> [N]                                              8.23872205491840E-08
 [a.u.] -> [K]                                              3.15774647902944E+05
 [a.u.] -> [kJ/mol]                                         2.62549961709828E+03
 [a.u.] -> [kcal/mol]                                       6.27509468713739E+02
 [a.u.] -> [Pa]                                             2.94210107994716E+13
 [a.u.] -> [bar]                                            2.94210107994716E+08
 [a.u.] -> [atm]                                            2.90362800883016E+08
 [a.u.] -> [eV]                                             2.72113838565563E+01
 [a.u.] -> [Hz]                                             6.57968392072181E+15
 [a.u.] -> [1/cm] (wave numbers)                            2.19474631370540E+05
 [a.u./Bohr**2] -> [1/cm]                                   5.14048714338585E+03
 

 CELL_TOP| Volume [angstrom^3]:                                     27000.000000
 CELL_TOP| Vector a [angstrom    30.000     0.000     0.000   |a| =    30.000000
 CELL_TOP| Vector b [angstrom     0.000    30.000     0.000   |b| =    30.000000
 CELL_TOP| Vector c [angstrom     0.000     0.000    30.000   |c| =    30.000000
 CELL_TOP| Angle (b,c), alpha [degree]:                                90.000000
 CELL_TOP| Angle (a,c), beta  [degree]:                                90.000000
 CELL_TOP| Angle (a,b), gamma [degree]:                                90.000000
 CELL_TOP| Numerically orthorhombic:                                         YES
 CELL_TOP| Periodicity                                                      NONE

 GENERATE|  Preliminary Number of Bonds generated:                             0
 GENERATE|  Achieved consistency in connectivity generation.

 CELL| Volume [angstrom^3]:                                         27000.000000
 CELL| Vector a [angstrom]:      30.000     0.000     0.000   |a| =    30.000000
 CELL| Vector b [angstrom]:       0.000    30.000     0.000   |b| =    30.000000
 CELL| Vector c [angstrom]:       0.000     0.000    30.000   |c| =    30.000000
 CELL| Angle (b,c), alpha [degree]:                                    90.000000
 CELL| Angle (a,c), beta  [degree]:                                    90.000000
 CELL| Angle (a,b), gamma [degree]:                                    90.000000
 CELL| Numerically orthorhombic:                                             YES
 CELL| Periodicity                                                          NONE

 CELL_REF| Volume [angstrom^3]:                                     27000.000000
 CELL_REF| Vector a [angstrom    30.000     0.000     0.000   |a| =    30.000000
 CELL_REF| Vector b [angstrom     0.000    30.000     0.000   |b| =    30.000000
 CELL_REF| Vector c [angstrom     0.000     0.000    30.000   |c| =    30.000000
 CELL_REF| Angle (b,c), alpha [degree]:                                90.000000
 CELL_REF| Angle (a,c), beta  [degree]:                                90.000000
 CELL_REF| Angle (a,b), gamma [degree]:                                90.000000
 CELL_REF| Numerically orthorhombic:                                         YES
 CELL_REF| Periodicity                                                      NONE

 *******************************************************************************
 *******************************************************************************
 **                                                                           **
 **     #####                         ##              ##                      **
 **    ##   ##            ##          ##              ##                      **
 **   ##     ##                       ##            ######                    **
 **   ##     ##  ##   ##  ##   #####  ##  ##   ####   ##    #####    #####    **
 **   ##     ##  ##   ##  ##  ##      ## ##   ##      ##   ##   ##  ##   ##   **
 **   ##  ## ##  ##   ##  ##  ##      ####     ###    ##   ######   ######    **
 **    ##  ###   ##   ##  ##  ##      ## ##      ##   ##   ##       ##        **
 **     #######   #####   ##   #####  ##  ##  ####    ##    #####   ##        **
 **           ##                                                    ##        **
 **                                                                           **
 **                                                ... make the atoms dance   **
 **                                                                           **
 **            Copyright (C) by CP2K developers group (2000-2025)             **
 **                      J. Chem. Phys. 152, 194103 (2020)                    **
 **                                                                           **
 *******************************************************************************

 DFT| Spin restricted Kohn-Sham (RKS) calculation                            RKS
 DFT| Multiplicity                                                             1
 DFT| Number of spin states                                                    1
 DFT| Charge                                                                   0
 DFT| Self-interaction correction (SIC)                                       NO
 DFT| Cutoffs: density                                              1.000000E-10
 DFT|          gradient                                             1.000000E-10
 DFT|          tau                                                  1.000000E-10
 DFT|          cutoff_smoothing_range                               0.000000E+00
 DFT| XC density smoothing                                                  NONE
 DFT| XC derivatives                                                          PW

 FUNCTIONAL| PBE:
 FUNCTIONAL| J.P.Perdew, K.Burke, M.Ernzerhof, Phys. Rev. Letter, vol. 77, n 18,
 FUNCTIONAL|  pp. 3865-3868, (1996)sx=0.750sc=1.000{spin unpolarized}           


 QS| Method:                                                                GAPW
 QS| Density plane wave grid type                        NON-SPHERICAL FULLSPACE
 QS| Number of grid levels:                                                    4
 QS| Density cutoff [a.u.]:                                                250.0
 QS| Multi grid cutoff [a.u.]: 1) grid level                               250.0
 QS|                           2) grid level                                83.3
 QS|                           3) grid level                                27.8
 QS|                           4) grid level                                 9.3
 QS| Grid level progression factor:                                          3.0
 QS| Relative density cutoff [a.u.]:                                        50.0
 QS| Interaction thresholds: eps_pgf_orb:                                1.0E-12
 QS|                         eps_filter_matrix:                          0.0E+00
 QS|                         eps_core_charge:                            1.0E-14
 QS|                         eps_rho_gspace:                             1.0E-12
 QS|                         eps_rho_rspace:                             1.0E-12
 QS|                         eps_gvg_rspace:                             1.0E-06
 QS|                         eps_ppl:                                    1.0E-02
 QS|                         eps_ppnl:                                   1.0E-08
 QS| GAPW|      One center basis from orbital basis primitives
 QS| GAPW|                   eps_fit:                                    1.0E-04
 QS| GAPW|                   eps_iso:                                    1.0E-12
 QS| GAPW|                   eps_svd:                                    1.0E-08
 QS| GAPW|                   eps_cpc:                                    1.0E-12
 QS| GAPW|   atom-r-grid: quadrature:                                     GC_LOG
 QS| GAPW|      atom-s-grid:  max l :                                          4
 QS| GAPW|      max_l_rho0 :                                                   2


 ATOMIC KIND INFORMATION

  1. Atomic kind: C                                     Number of atoms:       2

     Orbital Basis Set                                         aug-SZV-MOLOPT-ae

       Number of orbital shell sets:                                           2
       Number of orbital shells:                                               6
       Number of primitive Cartesian functions:                               13
       Number of Cartesian basis functions:                                   15
       Number of spherical basis functions:                                   14
       Norm type:                                                              2

       Normalised Cartesian orbitals:

                        Set   Shell   Orbital            Exponent    Coefficient

                          1       1    2s                0.070000       0.000000
                                                         0.143687       0.040037
                                                         0.313471       0.177689
                                                         0.721783       0.139661
                                                         1.876046      -0.038599
                                                         6.036200      -0.128975
                                                        30.497239      -0.122578

                          1       2    3s                0.070000      -0.142268
                                                         0.143687       0.288819
                                                         0.313471       0.010360
                                                         0.721783       0.175994
                                                         1.876046       0.000000
                                                         6.036200       0.000000
                                                        30.497239       0.000000

                          1       3    3px               0.070000       0.000000
                                                         0.143687       0.012825
                                                         0.313471       0.142381
                                                         0.721783       0.396426
                                                         1.876046       0.544234
                                                         6.036200       0.508157
                                                        30.497239       0.384077
                          1       3    3py               0.070000       0.000000
                                                         0.143687       0.012825
                                                         0.313471       0.142381
                                                         0.721783       0.396426
                                                         1.876046       0.544234
                                                         6.036200       0.508157
                                                        30.497239       0.384077
                          1       3    3pz               0.070000       0.000000
                                                         0.143687       0.012825
                                                         0.313471       0.142381
                                                         0.721783       0.396426
                                                         1.876046       0.544234
                                                         6.036200       0.508157
                                                        30.497239       0.384077

                          1       4    4px               0.070000       0.076505
                                                         0.143687      -0.086104
                                                         0.313471       0.010230
                                                         0.721783       0.129894
                                                         1.876046       0.000000
                                                         6.036200       0.000000
                                                        30.497239       0.000000
                          1       4    4py               0.070000       0.076505
                                                         0.143687      -0.086104
                                                         0.313471       0.010230
                                                         0.721783       0.129894
                                                         1.876046       0.000000
                                                         6.036200       0.000000
                                                        30.497239       0.000000
                          1       4    4pz               0.070000       0.076505
                                                         0.143687      -0.086104
                                                         0.313471       0.010230
                                                         0.721783       0.129894
                                                         1.876046       0.000000
                                                         6.036200       0.000000
                                                        30.497239       0.000000

                          1       5    4dx2              0.070000       0.004316
                                                         0.143687       0.012639
                                                         0.313471       0.125057
                                                         0.721783       0.080411
                                                         1.876046       0.000000
                                                         6.036200       0.000000
                                                        30.497239       0.000000
                          1       5    4dxy              0.070000       0.007476
                                                         0.143687       0.021892
                                                         0.313471       0.216606
                                                         0.721783       0.139276
                                                         1.876046       0.000000
                                                         6.036200       0.000000
                                                        30.497239       0.000000
                          1       5    4dxz              0.070000       0.007476
                                                         0.143687       0.021892
                                                         0.313471       0.216606
                                                         0.721783       0.139276
                                                         1.876046       0.000000
                                                         6.036200       0.000000
                                                        30.497239       0.000000
                          1       5    4dy2              0.070000       0.004316
                                                         0.143687       0.012639
                                                         0.313471       0.125057
                                                         0.721783       0.080411
                                                         1.876046       0.000000
                                                         6.036200       0.000000
                                                        30.497239       0.000000
                          1       5    4dyz              0.070000       0.007476
                                                         0.143687       0.021892
                                                         0.313471       0.216606
                                                         0.721783       0.139276
                                                         1.876046       0.000000
                                                         6.036200       0.000000
                                                        30.497239       0.000000
                          1       5    4dz2              0.070000       0.004316
                                                         0.143687       0.012639
                                                         0.313471       0.125057
                                                         0.721783       0.080411
                                                         1.876046       0.000000
                                                         6.036200       0.000000
                                                        30.497239       0.000000

                          2       1    1s              742.737049       0.929185
                                                       136.180025       1.402437
                                                        38.098264       1.841991
                                                        13.087782       1.817278
                                                         5.082369       1.004768
                                                         2.093200       0.161650

     RI Auxiliary Basis Set             RI_aug-SZV-MOLOPT-ae_N_RI_023_s_p_d_f_g_

       Number of orbital shell sets:                                           9
       Number of orbital shells:                                               9
       Number of primitive Cartesian functions:                                9
       Number of Cartesian basis functions:                                   27
       Number of spherical basis functions:                                   23
       Norm type:                                                              2

       Normalised Cartesian orbitals:

                        Set   Shell   Orbital            Exponent    Coefficient

                          1       1    1s                0.205603       0.217612

                          2       1    6px               0.237635       0.236498
                          2       1    6py               0.237635       0.236498
                          2       1    6pz               0.237635       0.236498

                          3       1    8dx2              0.581736       0.637793
                          3       1    8dxy              0.581736       1.104690
                          3       1    8dxz              0.581736       1.104690
                          3       1    8dy2              0.581736       0.637793
                          3       1    8dyz              0.581736       1.104690
                          3       1    8dz2              0.581736       0.637793

                          4       1    2s                0.804962       0.605678

                          5       1    7px               1.023757       1.467864
                          5       1    7py               1.023757       1.467864
                          5       1    7pz               1.023757       1.467864

                          6       1    9fx3              1.116833       1.887677
                          6       1    9fx2y             1.116833       4.220974
                          6       1    9fx2z             1.116833       4.220974
                          6       1    9fxy2             1.116833       4.220974
                          6       1    9fxyz             1.116833       7.310942
                          6       1    9fxz2             1.116833       4.220974
                          6       1    9fy3              1.116833       1.887677
                          6       1    9fy2z             1.116833       4.220974
                          6       1    9fyz2             1.116833       4.220974
                          6       1    9fz3              1.116833       1.887677

                          7       1    3s                4.605726       2.240700

                          8       1    4s               20.169126       6.783056

                          9       1    5s               81.661898      19.360862

       Atomic covalent radius [Angstrom]:                                  0.770

       Atomic van der Waals radius [Angstrom]:                             1.700

     The atoms of this atomic kind are PAW atoms (GAPW):
       Hard Gaussian function radius:                                      1.512
       Rho0 radius:                                                        1.512
       Maximum GTO radius used for PAW projector construction:            24.566

     GAPW Soft Basis Set                                  aug-SZV-MOLOPT-ae_soft

       Number of orbital shell sets:                                           2
       Number of orbital shells:                                               6
       Number of primitive Cartesian functions:                                6
       Number of Cartesian basis functions:                                   15
       Number of spherical basis functions:                                   14
       Norm type:                                                              2

       Normalised Cartesian orbitals:

                        Set   Shell   Orbital            Exponent    Coefficient

                          1       1    2s                0.070000       0.000000
                                                         0.143687       0.040037
                                                         0.313471       0.177689
                                                         0.721783       0.139661
                                                         1.876046      -0.038599

                          1       2    3s                0.070000      -0.142268
                                                         0.143687       0.288819
                                                         0.313471       0.010360
                                                         0.721783       0.175994
                                                         1.876046       0.000000

                          1       3    3px               0.070000       0.000000
                                                         0.143687       0.012825
                                                         0.313471       0.142381
                                                         0.721783       0.396426
                                                         1.876046       0.544234
                          1       3    3py               0.070000       0.000000
                                                         0.143687       0.012825
                                                         0.313471       0.142381
                                                         0.721783       0.396426
                                                         1.876046       0.544234
                          1       3    3pz               0.070000       0.000000
                                                         0.143687       0.012825
                                                         0.313471       0.142381
                                                         0.721783       0.396426
                                                         1.876046       0.544234

                          1       4    4px               0.070000       0.076505
                                                         0.143687      -0.086104
                                                         0.313471       0.010230
                                                         0.721783       0.129894
                                                         1.876046       0.000000
                          1       4    4py               0.070000       0.076505
                                                         0.143687      -0.086104
                                                         0.313471       0.010230
                                                         0.721783       0.129894
                                                         1.876046       0.000000
                          1       4    4pz               0.070000       0.076505
                                                         0.143687      -0.086104
                                                         0.313471       0.010230
                                                         0.721783       0.129894
                                                         1.876046       0.000000

                          1       5    4dx2              0.070000       0.004316
                                                         0.143687       0.012639
                                                         0.313471       0.125057
                                                         0.721783       0.080411
                                                         1.876046       0.000000
                          1       5    4dxy              0.070000       0.007476
                                                         0.143687       0.021892
                                                         0.313471       0.216606
                                                         0.721783       0.139276
                                                         1.876046       0.000000
                          1       5    4dxz              0.070000       0.007476
                                                         0.143687       0.021892
                                                         0.313471       0.216606
                                                         0.721783       0.139276
                                                         1.876046       0.000000
                          1       5    4dy2              0.070000       0.004316
                                                         0.143687       0.012639
                                                         0.313471       0.125057
                                                         0.721783       0.080411
                                                         1.876046       0.000000
                          1       5    4dyz              0.070000       0.007476
                                                         0.143687       0.021892
                                                         0.313471       0.216606
                                                         0.721783       0.139276
                                                         1.876046       0.000000
                          1       5    4dz2              0.070000       0.004316
                                                         0.143687       0.012639
                                                         0.313471       0.125057
                                                         0.721783       0.080411
                                                         1.876046       0.000000

                          2       1    1s                2.093200       0.161650

     AE Potential information for                                            ALL

       Description:                                       All-electron potential
                                          Krack, Parrinello, PCCP 2, 2105 (2000)

       Gaussian exponent of the core charge distribution:               4.109048
       Electronic configuration (s p d ...):                           4   2   0


 MOLECULE KIND INFORMATION


 All atoms are their own molecule, skipping detailed information


 TOTAL NUMBERS AND MAXIMUM NUMBERS

  Total number of            - Atomic kinds:                                   1
                             - Atoms:                                          2
                             - Shell sets:                                     4
                             - Shells:                                        12
                             - Primitive Cartesian functions:                 26
                             - Cartesian basis functions:                     30
                             - Spherical basis functions:                     28

  Maximum angular momentum of the orbital basis functions:                     2


 MODULE QUICKSTEP: ATOMIC COORDINATES IN ANGSTROM

   Atom Kind Element         X             Y             Z       Z(eff)     Mass
      1    1 C     6     15.620000     15.000000     15.000000   6.0000  12.0107
      2    1 C     6     14.380000     15.000000     15.000000   6.0000  12.0107



 SCF PARAMETERS         Density guess:                                    ATOMIC
                        --------------------------------------------------------
                        max_scf:                                             500
                        max_scf_history:                                       0
                        max_diis:                                              4
                        --------------------------------------------------------
                        eps_scf:                                        1.00E-06
                        eps_scf_history:                                0.00E+00
                        eps_diis:                                       1.00E-01
                        eps_eigval:                                     1.00E-05
                        --------------------------------------------------------
                        level_shift [a.u.]:                             0.000000
                        added MOs                                        22    0
                        --------------------------------------------------------
                        Mixing method:                            BROYDEN_MIXING
                                                charge density mixing in g-space
                        --------------------------------------------------------
                        No outer SCF

 PW_GRID| Information for grid number                                          1
 PW_GRID| Grid distributed over                                    24 processors
 PW_GRID| Real space group dimensions                                    24    1
 PW_GRID| the grid is blocked:                                                NO
 PW_GRID| Cutoff [a.u.]                                                    250.0
 PW_GRID| spherical cutoff:                                                   NO
 PW_GRID|   Bounds   1           -202     202                Points:         405
 PW_GRID|   Bounds   2           -202     202                Points:         405
 PW_GRID|   Bounds   3           -202     202                Points:         405
 PW_GRID| Volume element (a.u.^3)  0.2743E-02     Volume (a.u.^3)    182205.0337
 PW_GRID| Grid span                                                    FULLSPACE
 PW_GRID|   Distribution                         Average         Max         Min
 PW_GRID|   G-Vectors                          2767921.9     2768175     2767770
 PW_GRID|   G-Rays                                6834.4        6835        6834
 PW_GRID|   Real Space Points                  2767921.9     2788425     2624400

 PW_GRID| Information for grid number                                          2
 PW_GRID| Number of the reference grid                                         1
 PW_GRID| Grid distributed over                                    24 processors
 PW_GRID| Real space group dimensions                                    24    1
 PW_GRID| the grid is blocked:                                                NO
 PW_GRID| Cutoff [a.u.]                                                     83.3
 PW_GRID| spherical cutoff:                                                   NO
 PW_GRID|   Bounds   1           -120     119                Points:         240
 PW_GRID|   Bounds   2           -120     119                Points:         240
 PW_GRID|   Bounds   3           -120     119                Points:         240
 PW_GRID| Volume element (a.u.^3)  0.1318E-01     Volume (a.u.^3)    182205.0337
 PW_GRID| Grid span                                                    FULLSPACE
 PW_GRID|   Distribution                         Average         Max         Min
 PW_GRID|   G-Vectors                           576000.0      576240      575760
 PW_GRID|   G-Rays                                2400.0        2401        2399
 PW_GRID|   Real Space Points                   576000.0      576000      576000

 PW_GRID| Information for grid number                                          3
 PW_GRID| Number of the reference grid                                         1
 PW_GRID| Grid distributed over                                    24 processors
 PW_GRID| Real space group dimensions                                    24    1
 PW_GRID| the grid is blocked:                                                NO
 PW_GRID| Cutoff [a.u.]                                                     27.8
 PW_GRID| spherical cutoff:                                                   NO
 PW_GRID|   Bounds   1            -67      67                Points:         135
 PW_GRID|   Bounds   2            -67      67                Points:         135
 PW_GRID|   Bounds   3            -67      67                Points:         135
 PW_GRID| Volume element (a.u.^3)  0.7406E-01     Volume (a.u.^3)    182205.0337
 PW_GRID| Grid span                                                    FULLSPACE
 PW_GRID|   Distribution                         Average         Max         Min
 PW_GRID|   G-Vectors                           102515.6      102735      102330
 PW_GRID|   G-Rays                                 759.4         761         758
 PW_GRID|   Real Space Points                   102515.6      109350       91125

 PW_GRID| Information for grid number                                          4
 PW_GRID| Number of the reference grid                                         1
 PW_GRID| Grid distributed over                                    24 processors
 PW_GRID| Real space group dimensions                                    24    1
 PW_GRID| the grid is blocked:                                                NO
 PW_GRID| Cutoff [a.u.]                                                      9.3
 PW_GRID| spherical cutoff:                                                   NO
 PW_GRID|   Bounds   1            -40      39                Points:          80
 PW_GRID|   Bounds   2            -40      39                Points:          80
 PW_GRID|   Bounds   3            -40      39                Points:          80
 PW_GRID| Volume element (a.u.^3)  0.3559         Volume (a.u.^3)    182205.0337
 PW_GRID| Grid span                                                    FULLSPACE
 PW_GRID|   Distribution                         Average         Max         Min
 PW_GRID|   G-Vectors                            21333.3       21360       21280
 PW_GRID|   G-Rays                                 266.7         267         266
 PW_GRID|   Real Space Points                    21333.3       25600       19200

 POISSON| Solver                                                         WAVELET
 POISSON| Wavelet| Scaling function                                           40
 POISSON| Periodicity                                                       NONE

 RS_GRID| Information for grid number                                          1
 RS_GRID|   Bounds   1           -202     202                Points:         405
 RS_GRID|   Bounds   2           -202     202                Points:         405
 RS_GRID|   Bounds   3           -202     202                Points:         405
 RS_GRID| Real space distribution over                                  4 groups
 RS_GRID| Real space distribution along direction                              2
 RS_GRID| Border size                                                         33
 RS_GRID| Real space distribution over                                  6 groups
 RS_GRID| Real space distribution along direction                              3
 RS_GRID| Border size                                                         33
 RS_GRID|   Distribution                         Average         Max         Min
 RS_GRID|   Planes                                 167.2         168         167
 RS_GRID|   Distribution                         Average         Max         Min
 RS_GRID|   Planes                                 133.5         134         133

 RS_GRID| Information for grid number                                          2
 RS_GRID|   Bounds   1           -120     119                Points:         240
 RS_GRID|   Bounds   2           -120     119                Points:         240
 RS_GRID|   Bounds   3           -120     119                Points:         240
 RS_GRID| Real space distribution over                                  4 groups
 RS_GRID| Real space distribution along direction                              2
 RS_GRID| Border size                                                         35
 RS_GRID| Real space distribution over                                  6 groups
 RS_GRID| Real space distribution along direction                              3
 RS_GRID| Border size                                                         35
 RS_GRID|   Distribution                         Average         Max         Min
 RS_GRID|   Planes                                 130.0         130         130
 RS_GRID|   Distribution                         Average         Max         Min
 RS_GRID|   Planes                                 110.0         110         110

 RS_GRID| Information for grid number                                          3
 RS_GRID|   Bounds   1            -67      67                Points:         135
 RS_GRID|   Bounds   2            -67      67                Points:         135
 RS_GRID|   Bounds   3            -67      67                Points:         135
 RS_GRID| Real space fully replicated
 RS_GRID| Group size                                                           1

 RS_GRID| Information for grid number                                          4
 RS_GRID|   Bounds   1            -40      39                Points:          80
 RS_GRID|   Bounds   2            -40      39                Points:          80
 RS_GRID|   Bounds   3            -40      39                Points:          80
 RS_GRID| Real space fully replicated
 RS_GRID| Group size                                                           1

  HFX_INFO| Replica ID:                                                        1
  HFX_INFO| FRACTION:                                               0.2500000000
  HFX_INFO| Interaction Potential:                                       COULOMB
  HFX_INFO| EPS_SCHWARZ:                                                 1.0E-10
  HFX_INFO| EPS_SCHWARZ_FORCES                                           1.0E-08
  HFX_INFO| EPS_STORAGE_SCALING:                                         1.0E+00
  HFX_INFO| NBINS:                                                            64
  HFX_INFO| BLOCK_SIZE:                                                        1
  HFX_INFO| Number of periodic shells considered:                           NONE
  HFX_INFO| Number of periodic cells considered:                            NONE

 
 RI-RPA| using GPW style
 

 OVERLAP MATRIX CONDITION NUMBER
 1-Norm Condition Number (Estimate)
   CN : |A|*|A^-1|:  4.289E+000 *  1.449E+002   = 6.216E+002  Log(1-CN):  2.7935
 1-Norm and 2-Norm Condition Numbers using Diagonalization
   CN : |A|*|A^-1|:  4.289E+000 *  1.449E+002   = 6.216E+002  Log(1-CN):  2.7935
   CN : max/min ev:  3.122E+000 /  7.957E-003   = 3.923E+002  Log(2-CN):  2.5936

 Number of electrons:                                                         12
 Number of occupied orbitals:                                                  6
 Number of molecular orbitals:                                                28

 Number of orbital functions:                                                 28
 Number of independent orbital functions:                                     28

 Extrapolation method: initial_guess

 Atomic guess: The first density matrix is obtained in terms of atomic orbitals
               and electronic configurations assigned to each atomic kind

 Guess for atomic kind: C

 Electronic structure
    Total number of core electrons                                          0.00
    Total number of valence electrons                                       6.00
    Total number of electrons                                               6.00
    Multiplicity                                                   not specified
    S      2.00  2.00
    P      2.00


 *******************************************************************************
                  Iteration          Convergence                     Energy [au]
 *******************************************************************************
                          1        0.181972E-01                 -37.327047058214
                          2        0.113690E-01                 -37.327375013153
                          3        0.204442E-03                 -37.327563854518
                          4        0.318580E-06                 -37.327563914839

 Energy components [Hartree]           Total Energy ::          -37.327563914839
                                        Band Energy ::          -20.907151793925
                                     Kinetic Energy ::           37.918401132701
                                   Potential Energy ::          -75.245965047540
                                      Virial (-V/T) ::            1.984418192745
                                        Core Energy ::          -50.466619839572
                                          XC Energy ::           -4.803795746723
                                     Coulomb Energy ::           17.942851671456

 Orbital energies  State     L     Occupation   Energy[a.u.]          Energy[eV]

                       1     0          2.000      -9.826687         -267.397747
                       2     0          2.000      -0.471401          -12.827469

                       1     1          2.000      -0.155488           -4.231050


 Total Electron Density at R=0:                                       107.717880
 Re-scaling the density matrix to get the right number of electrons
                  # Electrons              Trace(P)               Scaling factor
                           12                12.000                        1.000


 SCF WAVEFUNCTION OPTIMIZATION

  Step     Update method      Time    Convergence         Total energy    Change
  ------------------------------------------------------------------------------

  HFX_MEM_INFO| Est. max. program size before HFX [MiB]:                    2136
  HFX_MEM_INFO| Number of cart. primitive ERI's calculated:            191263304
  HFX_MEM_INFO| Number of sph. ERI's calculated:                          230496
  HFX_MEM_INFO| Number of sph. ERI's stored in-core:                      230496
  HFX_MEM_INFO| Number of sph. ERI's stored on disk:                           0
  HFX_MEM_INFO| Number of sph. ERI's calculated on the fly:                    0
  HFX_MEM_INFO| Total memory consumption ERI's RAM [MiB]:                      2
  HFX_MEM_INFO| Whereof max-vals [MiB]:                                        1
  HFX_MEM_INFO| Total compression factor ERI's RAM:                         1.10
  HFX_MEM_INFO| Total memory consumption ERI's disk [MiB]:                     0
  HFX_MEM_INFO| Total compression factor ERI's disk:                        0.00
  HFX_MEM_INFO| Size of density/Fock matrix [MiB]:                             0
  HFX_MEM_INFO| Size of buffers [MiB]:                                         0
  HFX_MEM_INFO| Est. max. program size after HFX  [MiB]:                    2646

     1 NoMix/Diag. 0.10E+00    8.3     1.32591114       -75.7719229692 -7.58E+01
     2 Broy./Diag. 0.10E+00    4.7     0.07035765       -75.8326049100 -6.07E-02
     3 Broy./Diag. 0.10E+00    4.9     0.01253433       -75.8138421366  1.88E-02
     4 Broy./Diag. 0.10E+00    4.8     0.07463632       -75.4723750320  3.41E-01
     5 Broy./Diag. 0.10E+00    4.8     0.01673072       -75.5200580825 -4.77E-02
     6 Broy./Diag. 0.10E+00    4.9     0.02360516       -75.5654084809 -4.54E-02
     7 Broy./Diag. 0.10E+00    5.0     0.01289249       -75.5987441072 -3.33E-02
     8 Broy./Diag. 0.10E+00    5.0     0.00461396       -75.6140421523 -1.53E-02
     9 Broy./Diag. 0.10E+00    5.2     0.01027230       -75.6279836283 -1.39E-02
    10 Broy./Diag. 0.10E+00    5.4     0.00262021       -75.6364107129 -8.43E-03
    11 Broy./Diag. 0.10E+00    5.3     0.00970992       -75.6283617784  8.05E-03
    12 Broy./Diag. 0.10E+00    5.3     0.00247358       -75.6323132818 -3.95E-03
    13 Broy./Diag. 0.10E+00    5.3     0.00212290       -75.6357893991 -3.48E-03
    14 Broy./Diag. 0.10E+00    5.3     0.00314677       -75.6423693915 -6.58E-03
    15 Broy./Diag. 0.10E+00    5.3     0.00072808       -75.6452190201 -2.85E-03
    16 Broy./Diag. 0.10E+00    5.3     0.00096928       -75.6438408794  1.38E-03
    17 Broy./Diag. 0.10E+00    5.3     0.00091562       -75.6442991012 -4.58E-04
    18 Broy./Diag. 0.10E+00    5.3     0.00085083       -75.6439877073  3.11E-04
    19 Broy./Diag. 0.10E+00    5.3     0.00036697       -75.6427031526  1.28E-03
    20 Broy./Diag. 0.10E+00    5.3     0.00176629       -75.6425483792  1.55E-04
    21 Broy./Diag. 0.10E+00    5.3     0.00174650       -75.6428174913 -2.69E-04
    22 Broy./Diag. 0.10E+00    5.4     0.00116925       -75.6427617216  5.58E-05
    23 Broy./Diag. 0.10E+00    5.4     0.00151359       -75.6428714888 -1.10E-04
    24 Broy./Diag. 0.10E+00    5.3     0.00138231       -75.6425790231  2.92E-04
    25 Broy./Diag. 0.10E+00    5.3     0.00129722       -75.6427756633 -1.97E-04
    26 Broy./Diag. 0.10E+00    5.5     0.00111493       -75.6426564388  1.19E-04
    27 Broy./Diag. 0.10E+00    5.4     0.00112673       -75.6432908418 -6.34E-04
    28 Broy./Diag. 0.10E+00    5.3     0.00122346       -75.6431642122  1.27E-04
    29 Broy./Diag. 0.10E+00    5.3     0.00096874       -75.6430729991  9.12E-05
    30 Broy./Diag. 0.10E+00    5.3     0.00111363       -75.6432055672 -1.33E-04
    31 Broy./Diag. 0.10E+00    5.3     0.00087127       -75.6430577186  1.48E-04
    32 Broy./Diag. 0.10E+00    5.3     0.00092296       -75.6429863303  7.14E-05
    33 Broy./Diag. 0.10E+00    5.3     0.00113311       -75.6429348514  5.15E-05
    34 Broy./Diag. 0.10E+00    5.3     0.00108029       -75.6429068734  2.80E-05
    35 Broy./Diag. 0.10E+00    5.3     0.00103525       -75.6432183427 -3.11E-04
    36 Broy./Diag. 0.10E+00    5.3     0.00049757       -75.6433745255 -1.56E-04
    37 Broy./Diag. 0.10E+00    5.3     0.00066204       -75.6432048998  1.70E-04
    38 Broy./Diag. 0.10E+00    5.3     0.00077232       -75.6432445743 -3.97E-05
    39 Broy./Diag. 0.10E+00    5.4     0.00073310       -75.6436631553 -4.19E-04
    40 Broy./Diag. 0.10E+00    5.3     0.00137272       -75.6427909617  8.72E-04
    41 Broy./Diag. 0.10E+00    5.3     0.00043293       -75.6432456196 -4.55E-04
    42 Broy./Diag. 0.10E+00    5.3     0.00194918       -75.6428472886  3.98E-04
    43 Broy./Diag. 0.10E+00    5.3     0.00191019       -75.6430699858 -2.23E-04
    44 Broy./Diag. 0.10E+00    5.3     0.00110757       -75.6424913382  5.79E-04
    45 Broy./Diag. 0.10E+00    5.3     0.00246123       -75.6428435998 -3.52E-04
    46 Broy./Diag. 0.10E+00    5.4     0.00111089       -75.6429471892 -1.04E-04
    47 Broy./Diag. 0.10E+00    5.3     0.00085336       -75.6428142806  1.33E-04
    48 Broy./Diag. 0.10E+00    5.4     0.00723615       -75.6458936647 -3.08E-03
    49 Broy./Diag. 0.10E+00    5.4     0.00632582       -75.6454897393  4.04E-04
    50 Broy./Diag. 0.10E+00    5.4     0.00495713       -75.6441200143  1.37E-03
    51 Broy./Diag. 0.10E+00    5.3     0.00227152       -75.6429590955  1.16E-03
    52 Broy./Diag. 0.10E+00    5.3     0.00172940       -75.6425632153  3.96E-04
    53 Broy./Diag. 0.10E+00    5.3     0.00067456       -75.6421715028  3.92E-04
    54 Broy./Diag. 0.10E+00    5.3     0.00098646       -75.6419858345  1.86E-04
    55 Broy./Diag. 0.10E+00    5.3     0.00111432       -75.6419829042  2.93E-06
    56 Broy./Diag. 0.10E+00    5.3     0.00077231       -75.6418835935  9.93E-05
    57 Broy./Diag. 0.10E+00    5.3     0.00033342       -75.6421195362 -2.36E-04
    58 Broy./Diag. 0.10E+00    5.3     0.00042281       -75.6428142138 -6.95E-04
    59 Broy./Diag. 0.10E+00    5.3     0.00035604       -75.6427569681  5.72E-05
    60 Broy./Diag. 0.10E+00    5.3     0.00022518       -75.6428035627 -4.66E-05
    61 Broy./Diag. 0.10E+00    5.4     0.00022262       -75.6428096823 -6.12E-06
    62 Broy./Diag. 0.10E+00    5.3     0.00028615       -75.6428302082 -2.05E-05
    63 Broy./Diag. 0.10E+00    5.3     0.00035839       -75.6428635693 -3.34E-05
    64 Broy./Diag. 0.10E+00    5.3     0.00044841       -75.6428328388  3.07E-05
    65 Broy./Diag. 0.10E+00    5.4     0.00095723       -75.6427771125  5.57E-05
    66 Broy./Diag. 0.10E+00    5.3     0.00068885       -75.6426284854  1.49E-04
    67 Broy./Diag. 0.10E+00    5.3     0.00083558       -75.6429317884 -3.03E-04
    68 Broy./Diag. 0.10E+00    5.3     0.00102945       -75.6430490181 -1.17E-04
    69 Broy./Diag. 0.10E+00    5.3     0.00130075       -75.6428364900  2.13E-04
    70 Broy./Diag. 0.10E+00    5.3     0.00164505       -75.6426607628  1.76E-04
    71 Broy./Diag. 0.10E+00    5.4     0.00208464       -75.6426702147 -9.45E-06
    72 Broy./Diag. 0.10E+00    5.4     0.00259012       -75.6426704665 -2.52E-07
    73 Broy./Diag. 0.10E+00    5.5     0.00324161       -75.6419978077  6.73E-04
    74 Broy./Diag. 0.10E+00    5.3     0.00405131       -75.6417664572  2.31E-04
    75 Broy./Diag. 0.10E+00    5.3     0.00507245       -75.6416769400  8.95E-05
    76 Broy./Diag. 0.10E+00    5.3     0.00629515       -75.6418246931 -1.48E-04
    77 Broy./Diag. 0.10E+00    5.3     0.00784012       -75.6414890883  3.36E-04
    78 Broy./Diag. 0.10E+00    5.3     0.00974153       -75.6407138407  7.75E-04
    79 Broy./Diag. 0.10E+00    5.3     0.01209373       -75.6391713028  1.54E-03
    80 Broy./Diag. 0.10E+00    5.3     0.01496102       -75.6371573801  2.01E-03
    81 Broy./Diag. 0.10E+00    5.3     0.01809039       -75.6340899767  3.07E-03
    82 Broy./Diag. 0.10E+00    5.3     0.02146935       -75.6289367355  5.15E-03
    83 Broy./Diag. 0.10E+00    5.3     0.02493055       -75.6211550108  7.78E-03
    84 Broy./Diag. 0.10E+00    5.3     0.03027588       -75.6103247650  1.08E-02
    85 Broy./Diag. 0.10E+00    5.3     0.04357427       -75.5967799840  1.35E-02
    86 Broy./Diag. 0.10E+00    5.3     0.05693165       -75.5776827004  1.91E-02
    87 Broy./Diag. 0.10E+00    5.3     0.06919395       -75.5512513376  2.64E-02
    88 Broy./Diag. 0.10E+00    5.3     0.07806076       -75.5174012447  3.39E-02
    89 Broy./Diag. 0.10E+00    5.3     0.08064334       -75.4795676405  3.78E-02
    90 Broy./Diag. 0.10E+00    5.3     0.07552800       -75.4411082176  3.85E-02
    91 Broy./Diag. 0.10E+00    5.3     0.06537376       -75.4047701192  3.63E-02
    92 Broy./Diag. 0.10E+00    5.3     0.05750074       -75.3715410975  3.32E-02
    93 Broy./Diag. 0.10E+00    5.3     0.04785794       -75.3388013085  3.27E-02
    94 Broy./Diag. 0.10E+00    5.3     0.03837105       -75.2980696177  4.07E-02
    95 Broy./Diag. 0.10E+00    5.4     0.02277586       -75.2576373428  4.04E-02
    96 Broy./Diag. 0.10E+00    5.3     0.02145442       -75.2315324905  2.61E-02
    97 Broy./Diag. 0.10E+00    5.4     0.01895489       -75.2023226235  2.92E-02
    98 Broy./Diag. 0.10E+00    5.3     0.01384659       -75.1647978246  3.75E-02
    99 Broy./Diag. 0.10E+00    5.3     0.04909369       -75.3135661159 -1.49E-01
   100 Broy./Diag. 0.10E+00    5.3     0.02880429       -75.4079472088 -9.44E-02
   101 Broy./Diag. 0.10E+00    5.3     0.09696222       -75.7746287398 -3.67E-01
   102 Broy./Diag. 0.10E+00    5.3     0.10433718       -75.8651694939 -9.05E-02
   103 Broy./Diag. 0.10E+00    5.3     0.08580382       -75.6436832162  2.21E-01
   104 Broy./Diag. 0.10E+00    5.3     0.07023631       -75.6534557742 -9.77E-03
   105 Broy./Diag. 0.10E+00    5.3     0.14379915       -75.5443601641  1.09E-01
   106 Broy./Diag. 0.10E+00    5.4     0.25382712       -75.3709128903  1.73E-01
   107 Broy./Diag. 0.10E+00    5.3     0.23259755       -75.2299713675  1.41E-01
   108 Broy./Diag. 0.10E+00    5.3     0.05784708       -75.1533407124  7.66E-02
   109 Broy./Diag. 0.10E+00    5.3     0.17844704       -75.5325666737 -3.79E-01
   110 Broy./Diag. 0.10E+00    5.3     0.23607234       -75.7313576545 -1.99E-01
   111 Broy./Diag. 0.10E+00    5.3     0.04487458       -75.6596915978  7.17E-02
   112 Broy./Diag. 0.10E+00    5.3     0.04492211       -75.5863045292  7.34E-02
   113 Broy./Diag. 0.10E+00    5.3     0.05623578       -75.6207999804 -3.45E-02
   114 Broy./Diag. 0.10E+00    5.3     0.04000322       -75.6415655394 -2.08E-02
   115 Broy./Diag. 0.10E+00    5.3     0.02850051       -75.6370456981  4.52E-03
   116 Broy./Diag. 0.10E+00    5.3     0.03363171       -75.6273980714  9.65E-03
   117 Broy./Diag. 0.10E+00    5.4     0.03398037       -75.6319894429 -4.59E-03
   118 Broy./Diag. 0.10E+00    5.4     0.03873680       -75.6283319226  3.66E-03
   119 Broy./Diag. 0.10E+00    5.3     0.04508143       -75.6375276323 -9.20E-03
   120 Broy./Diag. 0.10E+00    5.4     0.03661514       -75.6469525738 -9.42E-03
   121 Broy./Diag. 0.10E+00    5.4     0.03162652       -75.6462616340  6.91E-04
   122 Broy./Diag. 0.10E+00    5.3     0.03496942       -75.6504264610 -4.16E-03
   123 Broy./Diag. 0.10E+00    5.3     0.03907585       -75.6196806384  3.07E-02
   124 Broy./Diag. 0.10E+00    5.3     0.04142235       -75.5901451773  2.95E-02
   125 Broy./Diag. 0.10E+00    5.3     0.05504737       -75.5525079351  3.76E-02
   126 Broy./Diag. 0.10E+00    5.3     0.05357818       -75.5212169461  3.13E-02
   127 Broy./Diag. 0.10E+00    5.3     0.05537749       -75.4812603396  4.00E-02
   128 Broy./Diag. 0.10E+00    5.4     0.08352749       -75.4378391444  4.34E-02
   129 Broy./Diag. 0.10E+00    5.5     0.09115558       -75.4050421351  3.28E-02
   130 Broy./Diag. 0.10E+00    5.3     0.08068849       -75.3516169974  5.34E-02
   131 Broy./Diag. 0.10E+00    5.4     0.06556733       -75.4679834740 -1.16E-01
   132 Broy./Diag. 0.10E+00    5.3     0.05074536       -75.4189654636  4.90E-02
   133 Broy./Diag. 0.10E+00    5.3     0.05090790       -75.3876386895  3.13E-02
   134 Broy./Diag. 0.10E+00    5.3     0.05096562       -75.3512515017  3.64E-02
   135 Broy./Diag. 0.10E+00    5.3     0.04456163       -75.3276449505  2.36E-02
   136 Broy./Diag. 0.10E+00    5.3     0.12092197       -75.3418480710 -1.42E-02
   137 Broy./Diag. 0.10E+00    5.3     0.07119240       -75.3428978047 -1.05E-03
   138 Broy./Diag. 0.10E+00    5.3     0.03368186       -75.3442925370 -1.39E-03
   139 Broy./Diag. 0.10E+00    5.3     0.04653601       -75.4190720573 -7.48E-02
   140 Broy./Diag. 0.10E+00    5.3     0.08163116       -75.6749163136 -2.56E-01
   141 Broy./Diag. 0.10E+00    5.3     0.08948339       -75.7874030159 -1.12E-01
   142 Broy./Diag. 0.10E+00    5.3     0.07163692       -75.6390595147  1.48E-01
   143 Broy./Diag. 0.10E+00    5.4     0.04309290       -75.5658209928  7.32E-02
   144 Broy./Diag. 0.10E+00    5.4     0.04794594       -75.5872805403 -2.15E-02
   145 Broy./Diag. 0.10E+00    5.4     0.08581719       -75.5736445779  1.36E-02
   146 Broy./Diag. 0.10E+00    5.4     0.15353585       -75.5305955911  4.30E-02
   147 Broy./Diag. 0.10E+00    5.3     0.11953478       -75.5386188305 -8.02E-03
   148 Broy./Diag. 0.10E+00    5.3     0.09853078       -75.5198935447  1.87E-02
   149 Broy./Diag. 0.10E+00    5.5     0.07542182       -75.5055744925  1.43E-02
   150 Broy./Diag. 0.10E+00    5.4     0.02790569       -75.4668089526  3.88E-02
   151 Broy./Diag. 0.10E+00    5.3     0.02148502       -75.4599647192  6.84E-03
   152 Broy./Diag. 0.10E+00    5.3     0.01370652       -75.4629239685 -2.96E-03
   153 Broy./Diag. 0.10E+00    5.4     0.02933015       -75.4343152709  2.86E-02
   154 Broy./Diag. 0.10E+00    5.3     0.01906415       -75.4491115627 -1.48E-02
   155 Broy./Diag. 0.10E+00    5.3     0.09760957       -75.3825454331  6.66E-02
   156 Broy./Diag. 0.10E+00    5.3     0.14991836       -75.3304969894  5.20E-02
   157 Broy./Diag. 0.10E+00    5.3     0.09626684       -75.4365602921 -1.06E-01
   158 Broy./Diag. 0.10E+00    5.3     0.06144099       -75.5712401931 -1.35E-01
   159 Broy./Diag. 0.10E+00    5.3     0.07702019       -75.6346374760 -6.34E-02
   160 Broy./Diag. 0.10E+00    5.3     0.01825330       -75.5537314398  8.09E-02
   161 Broy./Diag. 0.10E+00    5.4     0.03713396       -75.5327225024  2.10E-02
   162 Broy./Diag. 0.10E+00    5.4     0.06073385       -75.5339593452 -1.24E-03
   163 Broy./Diag. 0.10E+00    5.4     0.08783070       -75.5015648160  3.24E-02
   164 Broy./Diag. 0.10E+00    5.3     0.13698173       -75.4636226902  3.79E-02
   165 Broy./Diag. 0.10E+00    5.4     0.09728791       -75.4450791551  1.85E-02
   166 Broy./Diag. 0.10E+00    5.3     0.07009254       -75.4395896162  5.49E-03
   167 Broy./Diag. 0.10E+00    5.3     0.05758703       -75.4556012767 -1.60E-02
   168 Broy./Diag. 0.10E+00    5.3     0.06277823       -75.4832876138 -2.77E-02
   169 Broy./Diag. 0.10E+00    5.3     0.07961807       -75.5322708847 -4.90E-02
   170 Broy./Diag. 0.10E+00    5.3     0.07518515       -75.5856332272 -5.34E-02
   171 Broy./Diag. 0.10E+00    5.3     0.07552032       -75.6371010353 -5.15E-02
   172 Broy./Diag. 0.10E+00    5.3     0.07655435       -75.6763088391 -3.92E-02
   173 Broy./Diag. 0.10E+00    5.3     0.06477205       -75.7056100778 -2.93E-02
   174 Broy./Diag. 0.10E+00    5.4     0.03229480       -75.6696019035  3.60E-02
   175 Broy./Diag. 0.10E+00    5.3     0.02385429       -75.6854871926 -1.59E-02
   176 Broy./Diag. 0.10E+00    5.3     0.02936444       -75.7220682609 -3.66E-02
   177 Broy./Diag. 0.10E+00    5.3     0.02414354       -75.7322897242 -1.02E-02
   178 Broy./Diag. 0.10E+00    5.3     0.02673124       -75.7209089406  1.14E-02
   179 Broy./Diag. 0.10E+00    5.3     0.02577329       -75.7171909586  3.72E-03
   180 Broy./Diag. 0.10E+00    5.4     0.03177744       -75.7172881224 -9.72E-05
   181 Broy./Diag. 0.10E+00    5.3     0.03084179       -75.7127162139  4.57E-03
   182 Broy./Diag. 0.10E+00    5.4     0.04605998       -75.6946422985  1.81E-02
   183 Broy./Diag. 0.10E+00    5.3     0.04523991       -75.6967036538 -2.06E-03
   184 Broy./Diag. 0.10E+00    5.3     0.04494397       -75.6908874273  5.82E-03
   185 Broy./Diag. 0.10E+00    5.4     0.06517119       -75.6946506353 -3.76E-03
   186 Broy./Diag. 0.10E+00    5.3     0.06201503       -75.6746366230  2.00E-02
   187 Broy./Diag. 0.10E+00    5.4     0.06041387       -75.6418114974  3.28E-02
   188 Broy./Diag. 0.10E+00    5.3     0.10269519       -75.5658115234  7.60E-02
   189 Broy./Diag. 0.10E+00    5.3     0.07965666       -75.5188377929  4.70E-02
   190 Broy./Diag. 0.10E+00    5.3     0.02870274       -75.5015741147  1.73E-02
   191 Broy./Diag. 0.10E+00    5.4     0.02473524       -75.5197955144 -1.82E-02
   192 Broy./Diag. 0.10E+00    5.4     0.07690423       -75.5707451107 -5.09E-02
   193 Broy./Diag. 0.10E+00    5.4     0.12190268       -75.6351583728 -6.44E-02
   194 Broy./Diag. 0.10E+00    5.3     0.11028957       -75.6832499657 -4.81E-02
   195 Broy./Diag. 0.10E+00    5.4     0.07124047       -75.6907413366 -7.49E-03
   196 Broy./Diag. 0.10E+00    5.5     0.03858629       -75.6823816926  8.36E-03
   197 Broy./Diag. 0.10E+00    5.3     0.02176047       -75.6836282510 -1.25E-03
   198 Broy./Diag. 0.10E+00    5.4     0.01507869       -75.6833429591  2.85E-04
   199 Broy./Diag. 0.10E+00    5.4     0.01264689       -75.6813006000  2.04E-03
   200 Broy./Diag. 0.10E+00    5.3     0.00743414       -75.6766093983  4.69E-03
   201 Broy./Diag. 0.10E+00    5.4     0.00379107       -75.6751162022  1.49E-03
   202 Broy./Diag. 0.10E+00    5.3     0.00566653       -75.6724791394  2.64E-03
   203 Broy./Diag. 0.10E+00    5.3     0.02661028       -75.6569620455  1.55E-02
   204 Broy./Diag. 0.10E+00    5.3     0.01998108       -75.6639301013 -6.97E-03
   205 Broy./Diag. 0.10E+00    5.3     0.03409036       -75.6552480477  8.68E-03
   206 Broy./Diag. 0.10E+00    5.3     0.03927971       -75.6479446199  7.30E-03
   207 Broy./Diag. 0.10E+00    5.3     0.03430099       -75.6415075061  6.44E-03
   208 Broy./Diag. 0.10E+00    5.3     0.02287112       -75.6381714601  3.34E-03
   209 Broy./Diag. 0.10E+00    5.4     0.01802447       -75.6364956053  1.68E-03
   210 Broy./Diag. 0.10E+00    5.3     0.01313996       -75.6370185274 -5.23E-04
   211 Broy./Diag. 0.10E+00    5.3     0.01804150       -75.6327533217  4.27E-03
   212 Broy./Diag. 0.10E+00    5.4     0.01556085       -75.6290711295  3.68E-03
   213 Broy./Diag. 0.10E+00    5.4     0.02262671       -75.6355067037 -6.44E-03
   214 Broy./Diag. 0.10E+00    5.3     0.03970980       -75.6421471112 -6.64E-03
   215 Broy./Diag. 0.10E+00    5.3     0.05108837       -75.6511640771 -9.02E-03
   216 Broy./Diag. 0.10E+00    5.3     0.04112312       -75.6596136534 -8.45E-03
   217 Broy./Diag. 0.10E+00    5.4     0.01334374       -75.6433283675  1.63E-02
   218 Broy./Diag. 0.10E+00    5.3     0.02177055       -75.6376187342  5.71E-03
   219 Broy./Diag. 0.10E+00    5.3     0.01818824       -75.6462994034 -8.68E-03
   220 Broy./Diag. 0.10E+00    5.3     0.01803490       -75.6561757554 -9.88E-03
   221 Broy./Diag. 0.10E+00    5.3     0.00774002       -75.6462936715  9.88E-03
   222 Broy./Diag. 0.10E+00    5.3     0.00840073       -75.6406904068  5.60E-03
   223 Broy./Diag. 0.10E+00    5.3     0.00743792       -75.6398313609  8.59E-04
   224 Broy./Diag. 0.10E+00    5.4     0.00581218       -75.6408591826 -1.03E-03
   225 Broy./Diag. 0.10E+00    5.5     0.00422184       -75.6415378569 -6.79E-04
   226 Broy./Diag. 0.10E+00    5.3     0.01483696       -75.6342442239  7.29E-03
   227 Broy./Diag. 0.10E+00    5.3     0.01434791       -75.6325147150  1.73E-03
   228 Broy./Diag. 0.10E+00    5.3     0.00957008       -75.6368139672 -4.30E-03
   229 Broy./Diag. 0.10E+00    5.3     0.01480367       -75.6420388049 -5.22E-03
   230 Broy./Diag. 0.10E+00    5.3     0.01469402       -75.6432067074 -1.17E-03
   231 Broy./Diag. 0.10E+00    5.3     0.01444358       -75.6406663875  2.54E-03
   232 Broy./Diag. 0.10E+00    5.3     0.01286567       -75.6320921385  8.57E-03
   233 Broy./Diag. 0.10E+00    5.4     0.00276779       -75.6301010666  1.99E-03
   234 Broy./Diag. 0.10E+00    5.3     0.01396485       -75.6318278435 -1.73E-03
   235 Broy./Diag. 0.10E+00    5.3     0.01927358       -75.6318063488  2.15E-05
   236 Broy./Diag. 0.10E+00    5.4     0.01997820       -75.6344137152 -2.61E-03
   237 Broy./Diag. 0.10E+00    5.3     0.01297831       -75.6316151520  2.80E-03
   238 Broy./Diag. 0.10E+00    5.3     0.01009746       -75.6235798219  8.04E-03
   239 Broy./Diag. 0.10E+00    5.3     0.01309683       -75.6230154712  5.64E-04
   240 Broy./Diag. 0.10E+00    5.3     0.01577807       -75.6269892761 -3.97E-03
   241 Broy./Diag. 0.10E+00    5.4     0.01244392       -75.6321577726 -5.17E-03
   242 Broy./Diag. 0.10E+00    5.4     0.01383615       -75.6365437152 -4.39E-03
   243 Broy./Diag. 0.10E+00    5.3     0.01554232       -75.6392854363 -2.74E-03
   244 Broy./Diag. 0.10E+00    5.3     0.02255925       -75.6428578076 -3.57E-03
   245 Broy./Diag. 0.10E+00    5.3     0.02786359       -75.6453815864 -2.52E-03
   246 Broy./Diag. 0.10E+00    5.3     0.03231198       -75.6443797793  1.00E-03
   247 Broy./Diag. 0.10E+00    5.4     0.03903240       -75.6419824940  2.40E-03
   248 Broy./Diag. 0.10E+00    5.4     0.04309533       -75.6336223819  8.36E-03
   249 Broy./Diag. 0.10E+00    5.3     0.04392122       -75.6192866866  1.43E-02
   250 Broy./Diag. 0.10E+00    5.3     0.05856565       -75.5967311232  2.26E-02
   251 Broy./Diag. 0.10E+00    5.4     0.07052542       -75.5661962456  3.05E-02
   252 Broy./Diag. 0.10E+00    5.3     0.07731702       -75.5291240405  3.71E-02
   253 Broy./Diag. 0.10E+00    5.3     0.07613925       -75.4924909956  3.66E-02
   254 Broy./Diag. 0.10E+00    5.3     0.06857542       -75.4566657071  3.58E-02
   255 Broy./Diag. 0.10E+00    5.3     0.06187987       -75.4221379901  3.45E-02
   256 Broy./Diag. 0.10E+00    5.3     0.05049380       -75.3930855673  2.91E-02
   257 Broy./Diag. 0.10E+00    5.4     0.04260758       -75.3672282477  2.59E-02
   258 Broy./Diag. 0.10E+00    5.4     0.03673531       -75.3464206032  2.08E-02
   259 Broy./Diag. 0.10E+00    5.3     0.03713771       -75.3270867246  1.93E-02
   260 Broy./Diag. 0.10E+00    5.4     0.04042655       -75.3024708804  2.46E-02
   261 Broy./Diag. 0.10E+00    5.4     0.03602046       -75.2741048398  2.84E-02
   262 Broy./Diag. 0.10E+00    5.3     0.05754923       -75.2380767768  3.60E-02
   263 Broy./Diag. 0.10E+00    5.3     0.08158816       -75.1979955666  4.01E-02
   264 Broy./Diag. 0.10E+00    5.4     0.07308110       -75.1781223511  1.99E-02
   265 Broy./Diag. 0.10E+00    5.3     0.04431573       -75.1835265616 -5.40E-03
   266 Broy./Diag. 0.10E+00    5.3     0.02907811       -75.1894916903 -5.97E-03
   267 Broy./Diag. 0.10E+00    5.3     0.10663189       -75.3278288146 -1.38E-01
   268 Broy./Diag. 0.10E+00    5.3     0.10146505       -75.3431910108 -1.54E-02
   269 Broy./Diag. 0.10E+00    5.3     0.07908448       -75.3336065543  9.58E-03
   270 Broy./Diag. 0.10E+00    5.3     0.04740355       -75.3021937072  3.14E-02
   271 Broy./Diag. 0.10E+00    5.3     0.12890795       -75.3027576459 -5.64E-04
   272 Broy./Diag. 0.10E+00    5.3     0.04745705       -75.2897408762  1.30E-02
   273 Broy./Diag. 0.10E+00    5.3     0.16723586       -75.3169559119 -2.72E-02
   274 Broy./Diag. 0.10E+00    5.4     0.09092732       -75.4622218961 -1.45E-01
   275 Broy./Diag. 0.10E+00    5.4     0.05196317       -75.5181285390 -5.59E-02
   276 Broy./Diag. 0.10E+00    5.4     0.04914328       -75.5569672225 -3.88E-02
   277 Broy./Diag. 0.10E+00    5.3     0.05228811       -75.5448779288  1.21E-02
   278 Broy./Diag. 0.10E+00    5.3     0.03655194       -75.5875674674 -4.27E-02
   279 Broy./Diag. 0.10E+00    5.3     0.03671765       -75.6157304280 -2.82E-02
   280 Broy./Diag. 0.10E+00    5.3     0.05571870       -75.5468646348  6.89E-02
   281 Broy./Diag. 0.10E+00    5.3     0.05047867       -75.4752094586  7.17E-02
   282 Broy./Diag. 0.10E+00    5.3     0.11530750       -75.4173331678  5.79E-02
   283 Broy./Diag. 0.10E+00    5.3     0.08694737       -75.3913100312  2.60E-02
   284 Broy./Diag. 0.10E+00    5.3     0.10660076       -75.3411266539  5.02E-02
   285 Broy./Diag. 0.10E+00    5.3     0.11618522       -75.2976763130  4.35E-02
   286 Broy./Diag. 0.10E+00    5.3     0.09802765       -75.2599883408  3.77E-02
   287 Broy./Diag. 0.10E+00    5.3     0.07916489       -75.2584089403  1.58E-03
   288 Broy./Diag. 0.10E+00    5.3     0.02839398       -75.2980757904 -3.97E-02
   289 Broy./Diag. 0.10E+00    5.4     0.03519473       -75.3047359105 -6.66E-03
   290 Broy./Diag. 0.10E+00    5.3     0.02616595       -75.3505786593 -4.58E-02
   291 Broy./Diag. 0.10E+00    5.4     0.01738921       -75.3754430813 -2.49E-02
   292 Broy./Diag. 0.10E+00    5.4     0.01108147       -75.3734056463  2.04E-03
   293 Broy./Diag. 0.10E+00    5.4     0.02046922       -75.4175083175 -4.41E-02
   294 Broy./Diag. 0.10E+00    5.3     0.06827123       -75.4323464314 -1.48E-02
   295 Broy./Diag. 0.10E+00    5.3     0.19694971       -75.5142947631 -8.19E-02
   296 Broy./Diag. 0.10E+00    5.3     0.25285014       -75.5987660300 -8.45E-02
   297 Broy./Diag. 0.10E+00    5.4     0.13212334       -75.6647780872 -6.60E-02
   298 Broy./Diag. 0.10E+00    5.3     0.07667313       -75.6604257002  4.35E-03
   299 Broy./Diag. 0.10E+00    5.3     0.05041134       -75.6723866758 -1.20E-02
   300 Broy./Diag. 0.10E+00    5.3     0.03382940       -75.6779902224 -5.60E-03
   301 Broy./Diag. 0.10E+00    5.4     0.02302103       -75.6664339535  1.16E-02
   302 Broy./Diag. 0.10E+00    5.3     0.01144904       -75.6523418811  1.41E-02
   303 Broy./Diag. 0.10E+00    5.4     0.00788763       -75.6560940701 -3.75E-03
   304 Broy./Diag. 0.10E+00    5.3     0.00997053       -75.6426942878  1.34E-02
   305 Broy./Diag. 0.10E+00    5.4     0.01714607       -75.6557049317 -1.30E-02
   306 Broy./Diag. 0.10E+00    5.4     0.01051235       -75.6474694505  8.24E-03
   307 Broy./Diag. 0.10E+00    5.4     0.01508092       -75.6509756809 -3.51E-03
   308 Broy./Diag. 0.10E+00    5.4     0.02229727       -75.6531800669 -2.20E-03
   309 Broy./Diag. 0.10E+00    5.4     0.01498207       -75.6452657060  7.91E-03
   310 Broy./Diag. 0.10E+00    5.4     0.02025474       -75.6426526739  2.61E-03
   311 Broy./Diag. 0.10E+00    5.3     0.02019640       -75.6395178398  3.13E-03
   312 Broy./Diag. 0.10E+00    5.3     0.01961922       -75.6328292337  6.69E-03
   313 Broy./Diag. 0.10E+00    5.4     0.02042340       -75.6269647043  5.86E-03
   314 Broy./Diag. 0.10E+00    5.3     0.02455406       -75.6207356161  6.23E-03
   315 Broy./Diag. 0.10E+00    5.3     0.03943772       -75.6028868980  1.78E-02
   316 Broy./Diag. 0.10E+00    5.4     0.05054281       -75.5917167435  1.12E-02
   317 Broy./Diag. 0.10E+00    5.3     0.06311166       -75.5705910105  2.11E-02
   318 Broy./Diag. 0.10E+00    5.3     0.07717369       -75.5374459726  3.31E-02
   319 Broy./Diag. 0.10E+00    5.3     0.10109641       -75.5015353408  3.59E-02
   320 Broy./Diag. 0.10E+00    5.3     0.10117885       -75.4532442791  4.83E-02
   321 Broy./Diag. 0.10E+00    5.3     0.07974029       -75.4147170716  3.85E-02
   322 Broy./Diag. 0.10E+00    5.3     0.06166053       -75.3837478446  3.10E-02
   323 Broy./Diag. 0.10E+00    5.3     0.04505287       -75.3586911385  2.51E-02
   324 Broy./Diag. 0.10E+00    5.3     0.04426604       -75.3310186641  2.77E-02
   325 Broy./Diag. 0.10E+00    5.3     0.05509391       -75.3409576257 -9.94E-03
   326 Broy./Diag. 0.10E+00    5.3     0.07616862       -75.3499752040 -9.02E-03
   327 Broy./Diag. 0.10E+00    5.3     0.07467047       -75.3369883087  1.30E-02
   328 Broy./Diag. 0.10E+00    5.3     0.04633670       -75.3269889595  1.00E-02
   329 Broy./Diag. 0.10E+00    5.3     0.03880684       -75.3739244905 -4.69E-02
   330 Broy./Diag. 0.10E+00    5.3     0.12765213       -75.4026046627 -2.87E-02
   331 Broy./Diag. 0.10E+00    5.3     0.10971068       -75.4181993528 -1.56E-02
   332 Broy./Diag. 0.10E+00    5.3     0.05028249       -75.4314737858 -1.33E-02
   333 Broy./Diag. 0.10E+00    5.3     0.04572327       -75.4564881556 -2.50E-02
   334 Broy./Diag. 0.10E+00    5.4     0.02734246       -75.4923692346 -3.59E-02
   335 Broy./Diag. 0.10E+00    5.3     0.02490342       -75.5166267911 -2.43E-02
   336 Broy./Diag. 0.10E+00    5.3     0.05375128       -75.5390131893 -2.24E-02
   337 Broy./Diag. 0.10E+00    5.3     0.03521696       -75.5584661765 -1.95E-02
   338 Broy./Diag. 0.10E+00    5.3     0.07766089       -75.5370881505  2.14E-02
   339 Broy./Diag. 0.10E+00    5.3     0.14405683       -75.5527027339 -1.56E-02
   340 Broy./Diag. 0.10E+00    5.3     0.16274704       -75.6351210498 -8.24E-02
   341 Broy./Diag. 0.10E+00    5.3     0.10197535       -75.6593710432 -2.42E-02
   342 Broy./Diag. 0.10E+00    5.3     0.04216755       -75.6290480205  3.03E-02
   343 Broy./Diag. 0.10E+00    5.3     0.03412146       -75.6471492918 -1.81E-02
   344 Broy./Diag. 0.10E+00    5.3     0.01447924       -75.6518972240 -4.75E-03
   345 Broy./Diag. 0.10E+00    5.3     0.01137929       -75.6487066562  3.19E-03
   346 Broy./Diag. 0.10E+00    5.3     0.03884450       -75.6457386141  2.97E-03
   347 Broy./Diag. 0.10E+00    5.3     0.04308136       -75.6422072741  3.53E-03
   348 Broy./Diag. 0.10E+00    5.3     0.07023696       -75.6208891497  2.13E-02
   349 Broy./Diag. 0.10E+00    5.3     0.07986603       -75.5976545608  2.32E-02
   350 Broy./Diag. 0.10E+00    5.3     0.08367204       -75.5710414166  2.66E-02
   351 Broy./Diag. 0.10E+00    5.3     0.05982791       -75.5470139205  2.40E-02
   352 Broy./Diag. 0.10E+00    5.3     0.05329070       -75.5339839560  1.30E-02
   353 Broy./Diag. 0.10E+00    5.3     0.03046396       -75.5159280081  1.81E-02
   354 Broy./Diag. 0.10E+00    5.3     0.04307531       -75.5386593261 -2.27E-02
   355 Broy./Diag. 0.10E+00    5.3     0.03895688       -75.5519270424 -1.33E-02
   356 Broy./Diag. 0.10E+00    5.3     0.02671706       -75.5552600020 -3.33E-03
   357 Broy./Diag. 0.10E+00    5.3     0.01883060       -75.5696575469 -1.44E-02
[...]
   418 Broy./Diag. 0.10E+00    5.3     0.05998652       -75.4842313541  2.14E-02
   419 Broy./Diag. 0.10E+00    5.4     0.09109391       -75.5134900822 -2.93E-02
   420 Broy./Diag. 0.10E+00    5.3     0.15447078       -75.5249017821 -1.14E-02
   421 Broy./Diag. 0.10E+00    5.3     0.12767141       -75.5703115284 -4.54E-02
   422 Broy./Diag. 0.10E+00    5.4     0.10703757       -75.6353525933 -6.50E-02
   423 Broy./Diag. 0.10E+00    5.3     0.07690752       -75.6707991706 -3.54E-02
   424 Broy./Diag. 0.10E+00    5.3     0.07181810       -75.6893412232 -1.85E-02
   425 Broy./Diag. 0.10E+00    5.3     0.06106182       -75.6872635686  2.08E-03
   426 Broy./Diag. 0.10E+00    5.3     0.07069535       -75.7090372408 -2.18E-02
   427 Broy./Diag. 0.10E+00    5.3     0.06189650       -75.6809753467  2.81E-02
   428 Broy./Diag. 0.10E+00    5.3     0.04118562       -75.6681066531  1.29E-02
   429 Broy./Diag. 0.10E+00    5.3     0.05486037       -75.6061942779  6.19E-02
   430 Broy./Diag. 0.10E+00    5.3     0.06378811       -75.5867610939  1.94E-02
   431 Broy./Diag. 0.10E+00    5.3     0.06354894       -75.5842919516  2.47E-03
   432 Broy./Diag. 0.10E+00    5.3     0.06374226       -75.5902241020 -5.93E-03
   433 Broy./Diag. 0.10E+00    5.5     0.05758709       -75.6047935518 -1.46E-02
   434 Broy./Diag. 0.10E+00    5.3     0.05263025       -75.6186936757 -1.39E-02
   435 Broy./Diag. 0.10E+00    5.3     0.04751911       -75.6348310048 -1.61E-02
   436 Broy./Diag. 0.10E+00    5.3     0.04566124       -75.6416843438 -6.85E-03
   437 Broy./Diag. 0.10E+00    5.3     0.04628126       -75.6471797192 -5.50E-03
   438 Broy./Diag. 0.10E+00    5.3     0.04772170       -75.6477585930 -5.79E-04
   439 Broy./Diag. 0.10E+00    5.2     0.04144485       -75.6450764318  2.68E-03
   440 Broy./Diag. 0.10E+00    5.3     0.03628939       -75.6310849583  1.40E-02
   441 Broy./Diag. 0.10E+00    5.3     0.03567583       -75.6145961995  1.65E-02
   442 Broy./Diag. 0.10E+00    5.3     0.03877477       -75.6208681756 -6.27E-03
   443 Broy./Diag. 0.10E+00    5.3     0.04093156       -75.6357443221 -1.49E-02
   444 Broy./Diag. 0.10E+00    5.3     0.02018231       -75.6508903628 -1.51E-02
   445 Broy./Diag. 0.10E+00    5.4     0.02420392       -75.6450374445  5.85E-03
   446 Broy./Diag. 0.10E+00    5.3     0.05355821       -75.6419692868  3.07E-03
   447 Broy./Diag. 0.10E+00    5.3     0.07929993       -75.6744648824 -3.25E-02
   448 Broy./Diag. 0.10E+00    5.3     0.08736669       -75.6939847240 -1.95E-02
   449 Broy./Diag. 0.10E+00    5.4     0.05891542       -75.7006259952 -6.64E-03
   450 Broy./Diag. 0.10E+00    5.4     0.09431089       -75.7007912321 -1.65E-04
   451 Broy./Diag. 0.10E+00    5.3     0.08499580       -75.6756962790  2.51E-02
   452 Broy./Diag. 0.10E+00    5.3     0.06534522       -75.6673732756  8.32E-03
   453 Broy./Diag. 0.10E+00    5.4     0.03989573       -75.6555060991  1.19E-02
   454 Broy./Diag. 0.10E+00    5.3     0.04632877       -75.6362762360  1.92E-02
   455 Broy./Diag. 0.10E+00    5.4     0.04749785       -75.6192036266  1.71E-02
   456 Broy./Diag. 0.10E+00    5.3     0.03881580       -75.5932098085  2.60E-02
   457 Broy./Diag. 0.10E+00    5.4     0.04088846       -75.5721910084  2.10E-02
   458 Broy./Diag. 0.10E+00    5.3     0.06498953       -75.5435568921  2.86E-02
   459 Broy./Diag. 0.10E+00    5.3     0.04835336       -75.5283278001  1.52E-02
   460 Broy./Diag. 0.10E+00    5.3     0.03289802       -75.5055473164  2.28E-02
   461 Broy./Diag. 0.10E+00    5.3     0.06836661       -75.4926060603  1.29E-02
   462 Broy./Diag. 0.10E+00    5.3     0.14416714       -75.5045447011 -1.19E-02
   463 Broy./Diag. 0.10E+00    5.3     0.11432190       -75.5571726396 -5.26E-02
   464 Broy./Diag. 0.10E+00    5.4     0.04853069       -75.6052229024 -4.81E-02
   465 Broy./Diag. 0.10E+00    5.3     0.04899633       -75.6358997685 -3.07E-02
   466 Broy./Diag. 0.10E+00    5.3     0.06759346       -75.6463653112 -1.05E-02
   467 Broy./Diag. 0.10E+00    5.3     0.06144276       -75.6500718473 -3.71E-03
   468 Broy./Diag. 0.10E+00    5.3     0.07315955       -75.6323133443  1.78E-02
   469 Broy./Diag. 0.10E+00    5.3     0.05290274       -75.6040349839  2.83E-02
   470 Broy./Diag. 0.10E+00    5.3     0.04091047       -75.5821592285  2.19E-02
   471 Broy./Diag. 0.10E+00    5.3     0.03204420       -75.5862477302 -4.09E-03
   472 Broy./Diag. 0.10E+00    5.3     0.01127100       -75.6063020452 -2.01E-02
   473 Broy./Diag. 0.10E+00    5.4     0.02763834       -75.6020635325  4.24E-03
   474 Broy./Diag. 0.10E+00    5.3     0.02530962       -75.5817337723  2.03E-02
   475 Broy./Diag. 0.10E+00    5.3     0.03095680       -75.5835931531 -1.86E-03
   476 Broy./Diag. 0.10E+00    5.3     0.05709209       -75.5874184386 -3.83E-03
   477 Broy./Diag. 0.10E+00    5.3     0.08655241       -75.5784453492  8.97E-03
   478 Broy./Diag. 0.10E+00    5.3     0.07518938       -75.5819554731 -3.51E-03
   479 Broy./Diag. 0.10E+00    5.5     0.07159702       -75.5906988043 -8.74E-03
   480 Broy./Diag. 0.10E+00    5.3     0.10091301       -75.5485980274  4.21E-02
   481 Broy./Diag. 0.10E+00    5.4     0.09660227       -75.5066608762  4.19E-02
   482 Broy./Diag. 0.10E+00    5.3     0.10131491       -75.4637040915  4.30E-02
   483 Broy./Diag. 0.10E+00    5.3     0.10181801       -75.4307551331  3.29E-02
   484 Broy./Diag. 0.10E+00    5.4     0.08882960       -75.4016870823  2.91E-02
   485 Broy./Diag. 0.10E+00    5.3     0.07427423       -75.3836557546  1.80E-02
   486 Broy./Diag. 0.10E+00    5.3     0.08463874       -75.3953478297 -1.17E-02
   487 Broy./Diag. 0.10E+00    5.3     0.09875072       -75.3921363713  3.21E-03
   488 Broy./Diag. 0.10E+00    5.3     0.09523898       -75.4298883711 -3.78E-02
   489 Broy./Diag. 0.10E+00    5.4     0.08734243       -75.4667652504 -3.69E-02
   490 Broy./Diag. 0.10E+00    5.3     0.07349268       -75.4869984913 -2.02E-02
   491 Broy./Diag. 0.10E+00    5.3     0.07321873       -75.5140169784 -2.70E-02
   492 Broy./Diag. 0.10E+00    5.3     0.06197859       -75.5524995974 -3.85E-02
   493 Broy./Diag. 0.10E+00    5.3     0.04074884       -75.5802241557 -2.77E-02
   494 Broy./Diag. 0.10E+00    5.4     0.09345823       -75.5467787426  3.34E-02
   495 Broy./Diag. 0.10E+00    5.3     0.05842393       -75.5667081752 -1.99E-02
   496 Broy./Diag. 0.10E+00    5.3     0.07116954       -75.5414667050  2.52E-02
   497 Broy./Diag. 0.10E+00    5.3     0.08499556       -75.5375373398  3.93E-03
   498 Broy./Diag. 0.10E+00    5.3     0.08607098       -75.5354900183  2.05E-03
   499 Broy./Diag. 0.10E+00    5.3     0.07028922       -75.5422713161 -6.78E-03
   500 Broy./Diag. 0.10E+00    5.4     0.06367359       -75.5193845796  2.29E-02

  Leaving inner SCF loop after reaching   500 steps.


  Electronic density on regular grids:         -8.1520943010        3.8479056990
  Core density on regular grids:               12.0000000000        0.0000000000
  Hard and soft densities (Lebedev):          -31.7226651421      -27.8811315408
  Total Rho_soft + Rho1_hard - Rho1_soft      -11.9936279023
  Total charge density (r-space):               0.0063720977
  Total Rho_soft + Rho0_soft (g-space):         0.0063720019

  Overlap energy of the core charge distribution:               0.00003125550742
  Self energy of the core charge distribution:                -58.22549323810243
  Core Hamiltonian energy:                                    -15.00803761116286
  Hartree energy:                                              16.92307843975330
  Exchange-correlation energy:                                 -2.53008199297559
  Hartree-Fock Exchange energy:                                -2.55053762919184

  GAPW| Exc from hard and soft atomic rho1:                    -5.45325604560247
  GAPW| local Eh = 1 center integrals:                         -8.67508775783425

  Total energy:                                               -75.51938457960873

 *******************************************************************************
 *   ___                                                                       *
 *  /   \                                                                      *
 * [ABORT]                                                                     *
 *  \___/     SCF run NOT converged. To continue the calculation regardless,   *
 *    |             please set the keyword IGNORE_CONVERGENCE_FAILURE.         *
 *  O/|                                                                        *
 * /| |                                                                        *
 * / \                                                            qs_scf.F:611 *
 *******************************************************************************


 ===== Routine Calling Stack ===== 

            3 scf_env_do_scf
            2 qs_energies
            1 CP2K

 *******************************************************************************
 *   ___                                                                       *
 *  /   \                                                                      *
 * [ABORT]                                                                     *
 *  \___/     SCF run NOT converged. To continue the calculation regardless,   *
 *    |             please set the keyword IGNORE_CONVERGENCE_FAILURE.         *
 *  O/|                                                                        *
 * /| |                                                                        *
 * / \                                                            qs_scf.F:611 *
 *******************************************************************************


 ===== Routine Calling Stack ===== 

            3 scf_env_do_scf
            2 qs_energies
            1 CP2K

 *******************************************************************************
 *   ___                                                                       *
 *  /   \                                                                      *
 * [ABORT]                                                                     *
 *  \___/     SCF run NOT converged. To continue the calculation regardless,   *
 *    |             please set the keyword IGNORE_CONVERGENCE_FAILURE.         *
 *  O/|                                                                        *
 * /| |                                                                        *
 * / \                                                            qs_scf.F:611 *
 *******************************************************************************


 ===== Routine Calling Stack ===== 

            3 scf_env_do_scf
            2 qs_energies
            1 CP2K

 *******************************************************************************
 *   ___                                                                       *
 *  /   \                                                                      *
 * [ABORT]                                                                     *
 *  \___/     SCF run NOT converged. To continue the calculation regardless,   *
 *    |             please set the keyword IGNORE_CONVERGENCE_FAILURE.         *
 *  O/|                                                                        *
 * /| |                                                                        *
 * / \                                                            qs_scf.F:611 *
 *******************************************************************************


 ===== Routine Calling Stack ===== 

            3 scf_env_do_scf
            2 qs_energies
            1 CP2K

 *******************************************************************************
 *   ___                                                                       *
 *  /   \                                                                      *
 * [ABORT]                                                                     *
 *  \___/     SCF run NOT converged. To continue the calculation regardless,   *
 *    |             please set the keyword IGNORE_CONVERGENCE_FAILURE.         *
 *  O/|                                                                        *
 * /| |                                                                        *
 * / \                                                            qs_scf.F:611 *
 *******************************************************************************


 ===== Routine Calling Stack ===== 

            3 scf_env_do_scf
            2 qs_energies
            1 CP2K

 *******************************************************************************
 *   ___                                                                       *
 *  /   \                                                                      *
 * [ABORT]                                                                     *
 *  \___/     SCF run NOT converged. To continue the calculation regardless,   *
 *    |             please set the keyword IGNORE_CONVERGENCE_FAILURE.         *
 *  O/|                                                                        *
 * /| |                                                                        *
 * / \                                                            qs_scf.F:611 *
 *******************************************************************************


 ===== Routine Calling Stack ===== 

            3 scf_env_do_scf
            2 qs_energies
            1 CP2K

 *******************************************************************************
 *   ___                                                                       *
 *  /   \                                                                      *
 * [ABORT]                                                                     *
 *  \___/     SCF run NOT converged. To continue the calculation regardless,   *
 *    |             please set the keyword IGNORE_CONVERGENCE_FAILURE.         *
 *  O/|                                                                        *
 * /| |                                                                        *
 * / \                                                            qs_scf.F:611 *
 *******************************************************************************


 ===== Routine Calling Stack ===== 

            3 scf_env_do_scf
            2 qs_energies
            1 CP2K

 *******************************************************************************
 *   ___                                                                       *
 *  /   \                                                                      *
 * [ABORT]                                                                     *
 *  \___/     SCF run NOT converged. To continue the calculation regardless,   *
 *    |             please set the keyword IGNORE_CONVERGENCE_FAILURE.         *
 *  O/|                                                                        *
 * /| |                                                                        *
 * / \                                                            qs_scf.F:611 *
 *******************************************************************************


 ===== Routine Calling Stack ===== 

            3 scf_env_do_scf
            2 qs_energies
            1 CP2K

 *******************************************************************************
 *   ___                                                                       *
 *  /   \                                                                      *
 * [ABORT]                                                                     *
 *  \___/     SCF run NOT converged. To continue the calculation regardless,   *
 *    |             please set the keyword IGNORE_CONVERGENCE_FAILURE.         *
 *  O/|                                                                        *
 * /| |                                                                        *
 * / \                                                            qs_scf.F:611 *
 *******************************************************************************


 ===== Routine Calling Stack ===== 

            3 scf_env_do_scf
            2 qs_energies
            1 CP2K

 *******************************************************************************
 *   ___                                                                       *
 *  /   \                                                                      *
 * [ABORT]                                                                     *
 *  \___/     SCF run NOT converged. To continue the calculation regardless,   *
 *    |             please set the keyword IGNORE_CONVERGENCE_FAILURE.         *
 *  O/|                                                                        *
 * /| |                                                                        *
 * / \                                                            qs_scf.F:611 *
 *******************************************************************************


 ===== Routine Calling Stack ===== 

            3 scf_env_do_scf
            2 qs_energies
            1 CP2K

 *******************************************************************************
 *   ___                                                                       *
 *  /   \                                                                      *
 * [ABORT]                                                                     *
 *  \___/     SCF run NOT converged. To continue the calculation regardless,   *
 *    |             please set the keyword IGNORE_CONVERGENCE_FAILURE.         *
 *  O/|                                                                        *
 * /| |                                                                        *
 * / \                                                            qs_scf.F:611 *
 *******************************************************************************


 ===== Routine Calling Stack ===== 

            3 scf_env_do_scf
            2 qs_energies
            1 CP2K

 *******************************************************************************
 *   ___                                                                       *
 *  /   \                                                                      *
 * [ABORT]                                                                     *
 *  \___/     SCF run NOT converged. To continue the calculation regardless,   *
 *    |             please set the keyword IGNORE_CONVERGENCE_FAILURE.         *
 *  O/|                                                                        *
 * /| |                                                                        *
 * / \                                                            qs_scf.F:611 *
 *******************************************************************************


 ===== Routine Calling Stack ===== 

            3 scf_env_do_scf
            2 qs_energies
            1 CP2K

 *******************************************************************************
 *   ___                                                                       *
 *  /   \                                                                      *
 * [ABORT]                                                                     *
 *  \___/     SCF run NOT converged. To continue the calculation regardless,   *
 *    |             please set the keyword IGNORE_CONVERGENCE_FAILURE.         *
 *  O/|                                                                        *
 * /| |                                                                        *
 * / \                                                            qs_scf.F:611 *
 *******************************************************************************


 ===== Routine Calling Stack ===== 

            3 scf_env_do_scf
            2 qs_energies
            1 CP2K
