 DBCSR| CPU Multiplication driver                                           BLAS (U)
 DBCSR| Multrec recursion limit                                              512 (U)
 DBCSR| Multiplication stack size                                           1000 (D)
 DBCSR| Maximum elements for images                                    UNLIMITED (U)
 DBCSR| Multiplicative factor virtual images                                   1 (U)
 DBCSR| Use multiplication densification                                       T (D)
 DBCSR| Multiplication size stacks                                             3 (U)
 DBCSR| Use memory pool for CPU allocation                                     F (U)
 DBCSR| Number of 3D layers                                               SINGLE (U)
 DBCSR| Use MPI memory allocation                                              F (U)
 DBCSR| Use RMA algorithm                                                      F (U)
 DBCSR| Use Communication thread                                               T (U)
 DBCSR| Communication thread load                                             75 (D)
 DBCSR| MPI: My process id                                                     0
 DBCSR| MPI: Number of processes                                              24
 DBCSR| OMP: Current number of threads                                         4
 DBCSR| OMP: Max number of threads                                             4
 DBCSR| Split modifier for TAS multiplication algorithm                  1.0E+00 (U)


  **** **** ******  **  PROGRAM STARTED AT               2025-03-16 12:04:11.316
 ***** ** ***  *** **   PROGRAM STARTED ON                          i05r01c05s06
 **    ****   ******    PROGRAM STARTED BY                               di38fab
 ***** **    ** ** **   PROGRAM PROCESS ID                                251810
  **** **  *******  **  PROGRAM STARTED IN /hppfs/scratch/04/di38fab/05_MOL/W4-1
                                           1+ALK/h2/TZVP/GW+BSE/1e-3

 CP2K| version string:                 CP2K version 2025.1 (Development Version)
 CP2K| source code revision number:                                  git:d2e611a
 CP2K| cp2kflags: omp libint fftw3 libxc parallel scalapack max_contr=4         
 CP2K| is freely available from                            https://www.cp2k.org/
 CP2K| Program compiled at                       Thu 06 Mar 2025 05:09:20 PM CET
 CP2K| Program compiled on                                               login02
 CP2K| Program compiled for                                        Supermuc-foss
 CP2K| Data directory path                  /hppfs/work/pn36zo/di38fab/cp2k/data
 CP2K| Input file name                                                    GW.inp

 GLOBAL| Force Environment number                                              1
 GLOBAL| Basis set file name            /hppfs/scratch/04/di38fab/04_TMD/BASIS_A
 GLOBAL| Potential file name            /hppfs/work/pn36zo/di38fab/cp2k/data/ALL
 GLOBAL| MM Potential file name                                     MM_POTENTIAL
 GLOBAL| Coordinate file name                                      __STD_INPUT__
 GLOBAL| Method name                                                        CP2K
 GLOBAL| Project name                                                       MoS2
 GLOBAL| Run type                                                         ENERGY
 GLOBAL| FFT library                                                       FFTW3
 GLOBAL| Diagonalization library                                       ScaLAPACK
 GLOBAL| DGEMM library                                                      BLAS
 GLOBAL| Orthonormality check for eigenvectors                          DISABLED
 GLOBAL| Matrix multiplication library                                 ScaLAPACK
 GLOBAL| All-to-all communication in single precision                          F
 GLOBAL| FFTs using library dependent lengths                                  F
 GLOBAL| Grid backend                                                       AUTO
 GLOBAL| Global print level                                               MEDIUM
 GLOBAL| MPI I/O enabled                                                       T
 GLOBAL| Total number of message passing processes                            24
 GLOBAL| Number of threads for this process                                    4
 GLOBAL| This output is from process                                           0
 GLOBAL| OpenMP stack size per thread (OMP_STACKSIZE)                    default
 GLOBAL| CPU model name             Intel(R) Xeon(R) Platinum 8174 CPU @ 3.10GHz

 MEMORY| system memory details [Kb]
 MEMORY|                        rank 0           min           max       average
 MEMORY| MemTotal             98436660      98436660      98436660      98436660
 MEMORY| MemFree              84597472      84597472      84731756      84664614
 MEMORY| Buffers                     0             0             0             0
 MEMORY| Cached                2388080       2387800       2388080       2387940
 MEMORY| Slab                  1110792       1108260       1110792       1109526
 MEMORY| SReclaimable           260968        259928        260968        260448
 MEMORY| MemLikelyFree        87246520      87246520      87379484      87313002


 *** Fundamental physical constants (SI units) ***

 *** Literature: B. J. Mohr and B. N. Taylor,
 ***             CODATA recommended values of the fundamental physical
 ***             constants: 2006, Web Version 5.1
 ***             http://physics.nist.gov/constants

 Speed of light in vacuum [m/s]                             2.99792458000000E+08
 Magnetic constant or permeability of vacuum [N/A**2]       1.25663706143592E-06
 Electric constant or permittivity of vacuum [F/m]          8.85418781762039E-12
 Planck constant (h) [J*s]                                  6.62606896000000E-34
 Planck constant (h-bar) [J*s]                              1.05457162825177E-34
 Elementary charge [C]                                      1.60217648700000E-19
 Electron mass [kg]                                         9.10938215000000E-31
 Electron g factor [ ]                                     -2.00231930436220E+00
 Proton mass [kg]                                           1.67262163700000E-27
 Fine-structure constant                                    7.29735253760000E-03
 Rydberg constant [1/m]                                     1.09737315685270E+07
 Avogadro constant [1/mol]                                  6.02214179000000E+23
 Boltzmann constant [J/K]                                   1.38065040000000E-23
 Atomic mass unit [kg]                                      1.66053878200000E-27
 Bohr radius [m]                                            5.29177208590000E-11

 *** Conversion factors ***

 [u] -> [a.u.]                                              1.82288848426455E+03
 [Angstrom] -> [Bohr] = [a.u.]                              1.88972613288564E+00
 [a.u.] = [Bohr] -> [Angstrom]                              5.29177208590000E-01
 [a.u.] -> [s]                                              2.41888432650478E-17
 [a.u.] -> [fs]                                             2.41888432650478E-02
 [a.u.] -> [J]                                              4.35974393937059E-18
 [a.u.] -> [N]                                              8.23872205491840E-08
 [a.u.] -> [K]                                              3.15774647902944E+05
 [a.u.] -> [kJ/mol]                                         2.62549961709828E+03
 [a.u.] -> [kcal/mol]                                       6.27509468713739E+02
 [a.u.] -> [Pa]                                             2.94210107994716E+13
 [a.u.] -> [bar]                                            2.94210107994716E+08
 [a.u.] -> [atm]                                            2.90362800883016E+08
 [a.u.] -> [eV]                                             2.72113838565563E+01
 [a.u.] -> [Hz]                                             6.57968392072181E+15
 [a.u.] -> [1/cm] (wave numbers)                            2.19474631370540E+05
 [a.u./Bohr**2] -> [1/cm]                                   5.14048714338585E+03
 

 CELL_TOP| Volume [angstrom^3]:                                     27000.000000
 CELL_TOP| Vector a [angstrom    30.000     0.000     0.000   |a| =    30.000000
 CELL_TOP| Vector b [angstrom     0.000    30.000     0.000   |b| =    30.000000
 CELL_TOP| Vector c [angstrom     0.000     0.000    30.000   |c| =    30.000000
 CELL_TOP| Angle (b,c), alpha [degree]:                                90.000000
 CELL_TOP| Angle (a,c), beta  [degree]:                                90.000000
 CELL_TOP| Angle (a,b), gamma [degree]:                                90.000000
 CELL_TOP| Numerically orthorhombic:                                         YES
 CELL_TOP| Periodicity                                                      NONE

 GENERATE|  Preliminary Number of Bonds generated:                             0
 GENERATE|  Achieved consistency in connectivity generation.

 CELL| Volume [angstrom^3]:                                         27000.000000
 CELL| Vector a [angstrom]:      30.000     0.000     0.000   |a| =    30.000000
 CELL| Vector b [angstrom]:       0.000    30.000     0.000   |b| =    30.000000
 CELL| Vector c [angstrom]:       0.000     0.000    30.000   |c| =    30.000000
 CELL| Angle (b,c), alpha [degree]:                                    90.000000
 CELL| Angle (a,c), beta  [degree]:                                    90.000000
 CELL| Angle (a,b), gamma [degree]:                                    90.000000
 CELL| Numerically orthorhombic:                                             YES
 CELL| Periodicity                                                          NONE

 CELL_REF| Volume [angstrom^3]:                                     27000.000000
 CELL_REF| Vector a [angstrom    30.000     0.000     0.000   |a| =    30.000000
 CELL_REF| Vector b [angstrom     0.000    30.000     0.000   |b| =    30.000000
 CELL_REF| Vector c [angstrom     0.000     0.000    30.000   |c| =    30.000000
 CELL_REF| Angle (b,c), alpha [degree]:                                90.000000
 CELL_REF| Angle (a,c), beta  [degree]:                                90.000000
 CELL_REF| Angle (a,b), gamma [degree]:                                90.000000
 CELL_REF| Numerically orthorhombic:                                         YES
 CELL_REF| Periodicity                                                      NONE

 *******************************************************************************
 *******************************************************************************
 **                                                                           **
 **     #####                         ##              ##                      **
 **    ##   ##            ##          ##              ##                      **
 **   ##     ##                       ##            ######                    **
 **   ##     ##  ##   ##  ##   #####  ##  ##   ####   ##    #####    #####    **
 **   ##     ##  ##   ##  ##  ##      ## ##   ##      ##   ##   ##  ##   ##   **
 **   ##  ## ##  ##   ##  ##  ##      ####     ###    ##   ######   ######    **
 **    ##  ###   ##   ##  ##  ##      ## ##      ##   ##   ##       ##        **
 **     #######   #####   ##   #####  ##  ##  ####    ##    #####   ##        **
 **           ##                                                    ##        **
 **                                                                           **
 **                                                ... make the atoms dance   **
 **                                                                           **
 **            Copyright (C) by CP2K developers group (2000-2025)             **
 **                      J. Chem. Phys. 152, 194103 (2020)                    **
 **                                                                           **
 *******************************************************************************

 DFT| Spin restricted Kohn-Sham (RKS) calculation                            RKS
 DFT| Multiplicity                                                             1
 DFT| Number of spin states                                                    1
 DFT| Charge                                                                   0
 DFT| Self-interaction correction (SIC)                                       NO
 DFT| Cutoffs: density                                              1.000000E-10
 DFT|          gradient                                             1.000000E-10
 DFT|          tau                                                  1.000000E-10
 DFT|          cutoff_smoothing_range                               0.000000E+00
 DFT| XC density smoothing                                                  NONE
 DFT| XC derivatives                                                          PW

 FUNCTIONAL| PBE:
 FUNCTIONAL| J.P.Perdew, K.Burke, M.Ernzerhof, Phys. Rev. Letter, vol. 77, n 18,
 FUNCTIONAL|  pp. 3865-3868, (1996)sx=0.750sc=1.000{spin unpolarized}           


 QS| Method:                                                                GAPW
 QS| Density plane wave grid type                        NON-SPHERICAL FULLSPACE
 QS| Number of grid levels:                                                    4
 QS| Density cutoff [a.u.]:                                                250.0
 QS| Multi grid cutoff [a.u.]: 1) grid level                               250.0
 QS|                           2) grid level                                83.3
 QS|                           3) grid level                                27.8
 QS|                           4) grid level                                 9.3
 QS| Grid level progression factor:                                          3.0
 QS| Relative density cutoff [a.u.]:                                        50.0
 QS| Interaction thresholds: eps_pgf_orb:                                1.0E-12
 QS|                         eps_filter_matrix:                          0.0E+00
 QS|                         eps_core_charge:                            1.0E-14
 QS|                         eps_rho_gspace:                             1.0E-12
 QS|                         eps_rho_rspace:                             1.0E-12
 QS|                         eps_gvg_rspace:                             1.0E-06
 QS|                         eps_ppl:                                    1.0E-02
 QS|                         eps_ppnl:                                   1.0E-08
 QS| GAPW|      One center basis from orbital basis primitives
 QS| GAPW|                   eps_fit:                                    1.0E-04
 QS| GAPW|                   eps_iso:                                    1.0E-12
 QS| GAPW|                   eps_svd:                                    1.0E-08
 QS| GAPW|                   eps_cpc:                                    1.0E-12
 QS| GAPW|   atom-r-grid: quadrature:                                     GC_LOG
 QS| GAPW|      atom-s-grid:  max l :                                          4
 QS| GAPW|      max_l_rho0 :                                                   2


 ATOMIC KIND INFORMATION

  1. Atomic kind: H                                     Number of atoms:       2

     Orbital Basis Set                                        aug-TZVP-MOLOPT-ae

       Number of orbital shell sets:                                           1
       Number of orbital shells:                                               9
       Number of primitive Cartesian functions:                                6
       Number of Cartesian basis functions:                                   25
       Number of spherical basis functions:                                   23
       Norm type:                                                              2

       Normalised Cartesian orbitals:

                        Set   Shell   Orbital            Exponent    Coefficient

                          1       1    1s                0.030000       0.000000
                                                         0.091371      -0.049397
                                                         0.293823      -0.051765
                                                         1.065127       0.831136
                                                         4.947701      -0.270539
                                                        34.177738      -6.423540

                          1       2    2s                0.030000       0.000000
                                                         0.091371      -0.041080
                                                         0.293823       0.227881
                                                         1.065127       0.154529
                                                         4.947701       0.528758
                                                        34.177738       3.211471

                          1       3    3s                0.030000       0.000000
                                                         0.091371       0.076395
                                                         0.293823       0.077306
                                                         1.065127       0.164523
                                                         4.947701      -0.040048
                                                        34.177738      -1.131577

                          1       4    4s                0.030000       0.043550
                                                         0.091371      -0.026138
                                                         0.293823      -0.246542
                                                         1.065127      -0.077212
                                                         4.947701       0.000000
                                                        34.177738       0.000000

                          1       5    2px               0.030000       0.000000
                                                         0.091371       0.008886
                                                         0.293823      -0.007684
                                                         1.065127       1.416453
                                                         4.947701       1.341091
                                                        34.177738     -11.084238
                          1       5    2py               0.030000       0.000000
                                                         0.091371       0.008886
                                                         0.293823      -0.007684
                                                         1.065127       1.416453
                                                         4.947701       1.341091
                                                        34.177738     -11.084238
                          1       5    2pz               0.030000       0.000000
                                                         0.091371       0.008886
                                                         0.293823      -0.007684
                                                         1.065127       1.416453
                                                         4.947701       1.341091
                                                        34.177738     -11.084238

                          1       6    3px               0.030000       0.000000
                                                         0.091371      -0.013062
                                                         0.293823       0.330130
                                                         1.065127       0.106963
                                                         4.947701      -0.549928
                                                        34.177738       9.643751
                          1       6    3py               0.030000       0.000000
                                                         0.091371      -0.013062
                                                         0.293823       0.330130
                                                         1.065127       0.106963
                                                         4.947701      -0.549928
                                                        34.177738       9.643751
                          1       6    3pz               0.030000       0.000000
                                                         0.091371      -0.013062
                                                         0.293823       0.330130
                                                         1.065127       0.106963
                                                         4.947701      -0.549928
                                                        34.177738       9.643751

                          1       7    4px               0.030000       0.014060
                                                         0.091371       0.022273
                                                         0.293823      -0.026384
                                                         1.065127       0.024249
                                                         4.947701       0.000000
                                                        34.177738       0.000000
                          1       7    4py               0.030000       0.014060
                                                         0.091371       0.022273
                                                         0.293823      -0.026384
                                                         1.065127       0.024249
                                                         4.947701       0.000000
                                                        34.177738       0.000000
                          1       7    4pz               0.030000       0.014060
                                                         0.091371       0.022273
                                                         0.293823      -0.026384
                                                         1.065127       0.024249
                                                         4.947701       0.000000
                                                        34.177738       0.000000

                          1       8    3dx2              0.030000       0.000000
                                                         0.091371      -0.004737
                                                         0.293823       0.052231
                                                         1.065127       1.617163
                                                         4.947701      -1.124420
                                                        34.177738       9.702470
                          1       8    3dxy              0.030000       0.000000
                                                         0.091371      -0.008204
                                                         0.293823       0.090468
                                                         1.065127       2.801009
                                                         4.947701      -1.947552
                                                        34.177738      16.805171
                          1       8    3dxz              0.030000       0.000000
                                                         0.091371      -0.008204
                                                         0.293823       0.090468
                                                         1.065127       2.801009
                                                         4.947701      -1.947552
                                                        34.177738      16.805171
                          1       8    3dy2              0.030000       0.000000
                                                         0.091371      -0.004737
                                                         0.293823       0.052231
                                                         1.065127       1.617163
                                                         4.947701      -1.124420
                                                        34.177738       9.702470
                          1       8    3dyz              0.030000       0.000000
                                                         0.091371      -0.008204
                                                         0.293823       0.090468
                                                         1.065127       2.801009
                                                         4.947701      -1.947552
                                                        34.177738      16.805171
                          1       8    3dz2              0.030000       0.000000
                                                         0.091371      -0.004737
                                                         0.293823       0.052231
                                                         1.065127       1.617163
                                                         4.947701      -1.124420
                                                        34.177738       9.702470

                          1       9    4dx2              0.030000       0.002444
                                                         0.091371       0.004703
                                                         0.293823       0.069647
                                                         1.065127       0.196246
                                                         4.947701       0.000000
                                                        34.177738       0.000000
                          1       9    4dxy              0.030000       0.004233
                                                         0.091371       0.008146
                                                         0.293823       0.120632
                                                         1.065127       0.339908
                                                         4.947701       0.000000
                                                        34.177738       0.000000
                          1       9    4dxz              0.030000       0.004233
                                                         0.091371       0.008146
                                                         0.293823       0.120632
                                                         1.065127       0.339908
                                                         4.947701       0.000000
                                                        34.177738       0.000000
                          1       9    4dy2              0.030000       0.002444
                                                         0.091371       0.004703
                                                         0.293823       0.069647
                                                         1.065127       0.196246
                                                         4.947701       0.000000
                                                        34.177738       0.000000
                          1       9    4dyz              0.030000       0.004233
                                                         0.091371       0.008146
                                                         0.293823       0.120632
                                                         1.065127       0.339908
                                                         4.947701       0.000000
                                                        34.177738       0.000000
                          1       9    4dz2              0.030000       0.002444
                                                         0.091371       0.004703
                                                         0.293823       0.069647
                                                         1.065127       0.196246
                                                         4.947701       0.000000
                                                        34.177738       0.000000

     RI Auxiliary Basis Set             RI_aug-TZVP-MOLOPT-ae_N_RI_015_s_p_d_f_g

       Number of orbital shell sets:                                           7
       Number of orbital shells:                                               7
       Number of primitive Cartesian functions:                                7
       Number of Cartesian basis functions:                                   16
       Number of spherical basis functions:                                   15
       Norm type:                                                              2

       Normalised Cartesian orbitals:

                        Set   Shell   Orbital            Exponent    Coefficient

                          1       1    1s                0.422212       0.373300

                          2       1    5px               0.528968       0.643024
                          2       1    5py               0.528968       0.643024
                          2       1    5pz               0.528968       0.643024

                          3       1    2s                0.964505       0.693647

                          4       1    7dx2              1.311589       2.645791
                          4       1    7dxy              1.311589       4.582645
                          4       1    7dxz              1.311589       4.582645
                          4       1    7dy2              1.311589       2.645791
                          4       1    7dyz              1.311589       4.582645
                          4       1    7dz2              1.311589       2.645791

                          5       1    6px               2.125057       3.657239
                          5       1    6py               2.125057       3.657239
                          5       1    6pz               2.125057       3.657239

                          6       1    3s                3.460805       1.808393

                          7       1    4s               10.696328       4.215374

       Atomic covalent radius [Angstrom]:                                  0.320

       Atomic van der Waals radius [Angstrom]:                             1.090

     The atoms of this atomic kind are PAW atoms (GAPW):
       Hard Gaussian function radius:                                      1.200
       Rho0 radius:                                                        1.200
       Maximum GTO radius used for PAW projector construction:            24.566

     GAPW Soft Basis Set                                 aug-TZVP-MOLOPT-ae_soft

       Number of orbital shell sets:                                           1
       Number of orbital shells:                                               9
       Number of primitive Cartesian functions:                                5
       Number of Cartesian basis functions:                                   25
       Number of spherical basis functions:                                   23
       Norm type:                                                              2

       Normalised Cartesian orbitals:

                        Set   Shell   Orbital            Exponent    Coefficient

                          1       1    1s                0.030000       0.000000
                                                         0.091371      -0.049397
                                                         0.293823      -0.051765
                                                         1.065127       0.831136
                                                         4.947701      -0.270539

                          1       2    2s                0.030000       0.000000
                                                         0.091371      -0.041080
                                                         0.293823       0.227881
                                                         1.065127       0.154529
                                                         4.947701       0.528758

                          1       3    3s                0.030000       0.000000
                                                         0.091371       0.076395
                                                         0.293823       0.077306
                                                         1.065127       0.164523
                                                         4.947701      -0.040048

                          1       4    4s                0.030000       0.043550
                                                         0.091371      -0.026138
                                                         0.293823      -0.246542
                                                         1.065127      -0.077212
                                                         4.947701       0.000000

                          1       5    2px               0.030000       0.000000
                                                         0.091371       0.008886
                                                         0.293823      -0.007684
                                                         1.065127       1.416453
                                                         4.947701       1.341091
                          1       5    2py               0.030000       0.000000
                                                         0.091371       0.008886
                                                         0.293823      -0.007684
                                                         1.065127       1.416453
                                                         4.947701       1.341091
                          1       5    2pz               0.030000       0.000000
                                                         0.091371       0.008886
                                                         0.293823      -0.007684
                                                         1.065127       1.416453
                                                         4.947701       1.341091

                          1       6    3px               0.030000       0.000000
                                                         0.091371      -0.013062
                                                         0.293823       0.330130
                                                         1.065127       0.106963
                                                         4.947701      -0.549928
                          1       6    3py               0.030000       0.000000
                                                         0.091371      -0.013062
                                                         0.293823       0.330130
                                                         1.065127       0.106963
                                                         4.947701      -0.549928
                          1       6    3pz               0.030000       0.000000
                                                         0.091371      -0.013062
                                                         0.293823       0.330130
                                                         1.065127       0.106963
                                                         4.947701      -0.549928

                          1       7    4px               0.030000       0.014060
                                                         0.091371       0.022273
                                                         0.293823      -0.026384
                                                         1.065127       0.024249
                                                         4.947701       0.000000
                          1       7    4py               0.030000       0.014060
                                                         0.091371       0.022273
                                                         0.293823      -0.026384
                                                         1.065127       0.024249
                                                         4.947701       0.000000
                          1       7    4pz               0.030000       0.014060
                                                         0.091371       0.022273
                                                         0.293823      -0.026384
                                                         1.065127       0.024249
                                                         4.947701       0.000000

                          1       8    3dx2              0.030000       0.000000
                                                         0.091371      -0.004737
                                                         0.293823       0.052231
                                                         1.065127       1.617163
                                                         4.947701      -1.124420
                          1       8    3dxy              0.030000       0.000000
                                                         0.091371      -0.008204
                                                         0.293823       0.090468
                                                         1.065127       2.801009
                                                         4.947701      -1.947552
                          1       8    3dxz              0.030000       0.000000
                                                         0.091371      -0.008204
                                                         0.293823       0.090468
                                                         1.065127       2.801009
                                                         4.947701      -1.947552
                          1       8    3dy2              0.030000       0.000000
                                                         0.091371      -0.004737
                                                         0.293823       0.052231
                                                         1.065127       1.617163
                                                         4.947701      -1.124420
                          1       8    3dyz              0.030000       0.000000
                                                         0.091371      -0.008204
                                                         0.293823       0.090468
                                                         1.065127       2.801009
                                                         4.947701      -1.947552
                          1       8    3dz2              0.030000       0.000000
                                                         0.091371      -0.004737
                                                         0.293823       0.052231
                                                         1.065127       1.617163
                                                         4.947701      -1.124420

                          1       9    4dx2              0.030000       0.002444
                                                         0.091371       0.004703
                                                         0.293823       0.069647
                                                         1.065127       0.196246
                                                         4.947701       0.000000
                          1       9    4dxy              0.030000       0.004233
                                                         0.091371       0.008146
                                                         0.293823       0.120632
                                                         1.065127       0.339908
                                                         4.947701       0.000000
                          1       9    4dxz              0.030000       0.004233
                                                         0.091371       0.008146
                                                         0.293823       0.120632
                                                         1.065127       0.339908
                                                         4.947701       0.000000
                          1       9    4dy2              0.030000       0.002444
                                                         0.091371       0.004703
                                                         0.293823       0.069647
                                                         1.065127       0.196246
                                                         4.947701       0.000000
                          1       9    4dyz              0.030000       0.004233
                                                         0.091371       0.008146
                                                         0.293823       0.120632
                                                         1.065127       0.339908
                                                         4.947701       0.000000
                          1       9    4dz2              0.030000       0.002444
                                                         0.091371       0.004703
                                                         0.293823       0.069647
                                                         1.065127       0.196246
                                                         4.947701       0.000000

     AE Potential information for                                            ALL

       Description:                                       All-electron potential
                                          Krack, Parrinello, PCCP 2, 2105 (2000)

       Gaussian exponent of the core charge distribution:              12.500000
       Electronic configuration (s p d ...):                           1   0   0


 MOLECULE KIND INFORMATION


 All atoms are their own molecule, skipping detailed information


 TOTAL NUMBERS AND MAXIMUM NUMBERS

  Total number of            - Atomic kinds:                                   1
                             - Atoms:                                          2
                             - Shell sets:                                     2
                             - Shells:                                        18
                             - Primitive Cartesian functions:                 12
                             - Cartesian basis functions:                     50
                             - Spherical basis functions:                     46

  Maximum angular momentum of the orbital basis functions:                     2


 MODULE QUICKSTEP: ATOMIC COORDINATES IN ANGSTROM

   Atom Kind Element         X             Y             Z       Z(eff)     Mass
      1    1 H     1     15.370946     15.000000     15.000000   1.0000   1.0079
      2    1 H     1     14.629054     15.000000     15.000000   1.0000   1.0079



 SCF PARAMETERS         Density guess:                                    ATOMIC
                        --------------------------------------------------------
                        max_scf:                                             500
                        max_scf_history:                                       0
                        max_diis:                                              4
                        --------------------------------------------------------
                        eps_scf:                                        1.00E-06
                        eps_scf_history:                                0.00E+00
                        eps_diis:                                       1.00E-01
                        eps_eigval:                                     1.00E-05
                        --------------------------------------------------------
                        level_shift [a.u.]:                             0.000000
                        added MOs                                        45    0
                        --------------------------------------------------------
                        Mixing method:                            BROYDEN_MIXING
                                                charge density mixing in g-space
                        --------------------------------------------------------
                        No outer SCF

 PW_GRID| Information for grid number                                          1
 PW_GRID| Grid distributed over                                    24 processors
 PW_GRID| Real space group dimensions                                    24    1
 PW_GRID| the grid is blocked:                                                NO
 PW_GRID| Cutoff [a.u.]                                                    250.0
 PW_GRID| spherical cutoff:                                                   NO
 PW_GRID|   Bounds   1           -202     202                Points:         405
 PW_GRID|   Bounds   2           -202     202                Points:         405
 PW_GRID|   Bounds   3           -202     202                Points:         405
 PW_GRID| Volume element (a.u.^3)  0.2743E-02     Volume (a.u.^3)    182205.0337
 PW_GRID| Grid span                                                    FULLSPACE
 PW_GRID|   Distribution                         Average         Max         Min
 PW_GRID|   G-Vectors                          2767921.9     2768175     2767770
 PW_GRID|   G-Rays                                6834.4        6835        6834
 PW_GRID|   Real Space Points                  2767921.9     2788425     2624400

 PW_GRID| Information for grid number                                          2
 PW_GRID| Number of the reference grid                                         1
 PW_GRID| Grid distributed over                                    24 processors
 PW_GRID| Real space group dimensions                                    24    1
 PW_GRID| the grid is blocked:                                                NO
 PW_GRID| Cutoff [a.u.]                                                     83.3
 PW_GRID| spherical cutoff:                                                   NO
 PW_GRID|   Bounds   1           -120     119                Points:         240
 PW_GRID|   Bounds   2           -120     119                Points:         240
 PW_GRID|   Bounds   3           -120     119                Points:         240
 PW_GRID| Volume element (a.u.^3)  0.1318E-01     Volume (a.u.^3)    182205.0337
 PW_GRID| Grid span                                                    FULLSPACE
 PW_GRID|   Distribution                         Average         Max         Min
 PW_GRID|   G-Vectors                           576000.0      576240      575760
 PW_GRID|   G-Rays                                2400.0        2401        2399
 PW_GRID|   Real Space Points                   576000.0      576000      576000

 PW_GRID| Information for grid number                                          3
 PW_GRID| Number of the reference grid                                         1
 PW_GRID| Grid distributed over                                    24 processors
 PW_GRID| Real space group dimensions                                    24    1
 PW_GRID| the grid is blocked:                                                NO
 PW_GRID| Cutoff [a.u.]                                                     27.8
 PW_GRID| spherical cutoff:                                                   NO
 PW_GRID|   Bounds   1            -67      67                Points:         135
 PW_GRID|   Bounds   2            -67      67                Points:         135
 PW_GRID|   Bounds   3            -67      67                Points:         135
 PW_GRID| Volume element (a.u.^3)  0.7406E-01     Volume (a.u.^3)    182205.0337
 PW_GRID| Grid span                                                    FULLSPACE
 PW_GRID|   Distribution                         Average         Max         Min
 PW_GRID|   G-Vectors                           102515.6      102735      102330
 PW_GRID|   G-Rays                                 759.4         761         758
 PW_GRID|   Real Space Points                   102515.6      109350       91125

 PW_GRID| Information for grid number                                          4
 PW_GRID| Number of the reference grid                                         1
 PW_GRID| Grid distributed over                                    24 processors
 PW_GRID| Real space group dimensions                                    24    1
 PW_GRID| the grid is blocked:                                                NO
 PW_GRID| Cutoff [a.u.]                                                      9.3
 PW_GRID| spherical cutoff:                                                   NO
 PW_GRID|   Bounds   1            -40      39                Points:          80
 PW_GRID|   Bounds   2            -40      39                Points:          80
 PW_GRID|   Bounds   3            -40      39                Points:          80
 PW_GRID| Volume element (a.u.^3)  0.3559         Volume (a.u.^3)    182205.0337
 PW_GRID| Grid span                                                    FULLSPACE
 PW_GRID|   Distribution                         Average         Max         Min
 PW_GRID|   G-Vectors                            21333.3       21360       21280
 PW_GRID|   G-Rays                                 266.7         267         266
 PW_GRID|   Real Space Points                    21333.3       25600       19200

 POISSON| Solver                                                         WAVELET
 POISSON| Wavelet| Scaling function                                           40
 POISSON| Periodicity                                                       NONE

 RS_GRID| Information for grid number                                          1
 RS_GRID|   Bounds   1           -202     202                Points:         405
 RS_GRID|   Bounds   2           -202     202                Points:         405
 RS_GRID|   Bounds   3           -202     202                Points:         405
 RS_GRID| Real space distribution over                                  4 groups
 RS_GRID| Real space distribution along direction                              2
 RS_GRID| Border size                                                         31
 RS_GRID| Real space distribution over                                  6 groups
 RS_GRID| Real space distribution along direction                              3
 RS_GRID| Border size                                                         31
 RS_GRID|   Distribution                         Average         Max         Min
 RS_GRID|   Planes                                 163.2         164         163
 RS_GRID|   Distribution                         Average         Max         Min
 RS_GRID|   Planes                                 129.5         130         129

 RS_GRID| Information for grid number                                          2
 RS_GRID|   Bounds   1           -120     119                Points:         240
 RS_GRID|   Bounds   2           -120     119                Points:         240
 RS_GRID|   Bounds   3           -120     119                Points:         240
 RS_GRID| Real space distribution over                                  4 groups
 RS_GRID| Real space distribution along direction                              2
 RS_GRID| Border size                                                         36
 RS_GRID| Real space distribution over                                  6 groups
 RS_GRID| Real space distribution along direction                              3
 RS_GRID| Border size                                                         36
 RS_GRID|   Distribution                         Average         Max         Min
 RS_GRID|   Planes                                 132.0         132         132
 RS_GRID|   Distribution                         Average         Max         Min
 RS_GRID|   Planes                                 112.0         112         112

 RS_GRID| Information for grid number                                          3
 RS_GRID|   Bounds   1            -67      67                Points:         135
 RS_GRID|   Bounds   2            -67      67                Points:         135
 RS_GRID|   Bounds   3            -67      67                Points:         135
 RS_GRID| Real space fully replicated
 RS_GRID| Group size                                                           1

 RS_GRID| Information for grid number                                          4
 RS_GRID|   Bounds   1            -40      39                Points:          80
 RS_GRID|   Bounds   2            -40      39                Points:          80
 RS_GRID|   Bounds   3            -40      39                Points:          80
 RS_GRID| Real space fully replicated
 RS_GRID| Group size                                                           1

  HFX_INFO| Replica ID:                                                        1
  HFX_INFO| FRACTION:                                               0.2500000000
  HFX_INFO| Interaction Potential:                                       COULOMB
  HFX_INFO| EPS_SCHWARZ:                                                 1.0E-10
  HFX_INFO| EPS_SCHWARZ_FORCES                                           1.0E-08
  HFX_INFO| EPS_STORAGE_SCALING:                                         1.0E+00
  HFX_INFO| NBINS:                                                            64
  HFX_INFO| BLOCK_SIZE:                                                        1
  HFX_INFO| Number of periodic shells considered:                           NONE
  HFX_INFO| Number of periodic cells considered:                            NONE

 
 RI-RPA| using GPW style
 

 OVERLAP MATRIX CONDITION NUMBER
 1-Norm Condition Number (Estimate)
   CN : |A|*|A^-1|:  5.823E+000 *  8.472E+003   = 4.933E+004  Log(1-CN):  4.6931
 1-Norm and 2-Norm Condition Numbers using Diagonalization
   CN : |A|*|A^-1|:  5.823E+000 *  8.472E+003   = 4.933E+004  Log(1-CN):  4.6931
   CN : max/min ev:  4.404E+000 /  1.731E-004   = 2.545E+004  Log(2-CN):  4.4057

 Number of electrons:                                                          2
 Number of occupied orbitals:                                                  1
 Number of molecular orbitals:                                                46

 Number of orbital functions:                                                 46
 Number of independent orbital functions:                                     46

 Extrapolation method: initial_guess

 Atomic guess: The first density matrix is obtained in terms of atomic orbitals
               and electronic configurations assigned to each atomic kind

 Guess for atomic kind: H

 Electronic structure
    Total number of core electrons                                          0.00
    Total number of valence electrons                                       1.00
    Total number of electrons                                               1.00
    Multiplicity                                                   not specified
    S      1.00


 *******************************************************************************
                  Iteration          Convergence                     Energy [au]
 *******************************************************************************
                          1        0.733196E-02                  -0.445117623880
                          2        0.859241E-03                  -0.445212006904
                          3        0.845006E-04                  -0.445214656295
                          4        0.112741E-06                  -0.445214675972

 Energy components [Hartree]           Total Energy ::           -0.445214675972
                                        Band Energy ::           -0.233330933424
                                     Kinetic Energy ::            0.424855784484
                                   Potential Energy ::           -0.870070460456
                                      Virial (-V/T) ::            2.047919534654
                                        Core Energy ::           -0.495467353870
                                          XC Energy ::           -0.231971319510
                                     Coulomb Energy ::            0.282223997408

 Orbital energies  State     L     Occupation   Energy[a.u.]          Energy[eV]

                       1     0          1.000      -0.233331           -6.349258


 Total Electron Density at R=0:                                         0.248077
 Re-scaling the density matrix to get the right number of electrons
                  # Electrons              Trace(P)               Scaling factor
                            2                 2.000                        1.000


 SCF WAVEFUNCTION OPTIMIZATION

  Step     Update method      Time    Convergence         Total energy    Change
  ------------------------------------------------------------------------------

  HFX_MEM_INFO| Est. max. program size before HFX [MiB]:                    2089
  HFX_MEM_INFO| Number of cart. primitive ERI's calculated:             77250000
  HFX_MEM_INFO| Number of sph. ERI's calculated:                         1679046
  HFX_MEM_INFO| Number of sph. ERI's stored in-core:                     1679046
  HFX_MEM_INFO| Number of sph. ERI's stored on disk:                           0
  HFX_MEM_INFO| Number of sph. ERI's calculated on the fly:                    0
  HFX_MEM_INFO| Total memory consumption ERI's RAM [MiB]:                      8
  HFX_MEM_INFO| Whereof max-vals [MiB]:                                        1
  HFX_MEM_INFO| Total compression factor ERI's RAM:                         1.65
  HFX_MEM_INFO| Total memory consumption ERI's disk [MiB]:                     0
  HFX_MEM_INFO| Total compression factor ERI's disk:                        0.00
  HFX_MEM_INFO| Size of density/Fock matrix [MiB]:                             0
  HFX_MEM_INFO| Size of buffers [MiB]:                                         8
  HFX_MEM_INFO| Est. max. program size after HFX  [MiB]:                    2609

     1 NoMix/Diag. 0.10E+00    8.8     0.48126369        -0.9432900279 -9.43E-01
     2 Broy./Diag. 0.10E+00    4.7     0.02301258        -0.7493647187  1.94E-01
     3 Broy./Diag. 0.10E+00    4.8     0.01715733        -0.3529084568  3.96E-01
     4 Broy./Diag. 0.10E+00    4.8     0.00238665        -0.4403989042 -8.75E-02
     5 Broy./Diag. 0.10E+00    4.9     0.00460206        -0.5294748012 -8.91E-02
     6 Broy./Diag. 0.10E+00    5.0     0.00230841        -0.5634560330 -3.40E-02
     7 Broy./Diag. 0.10E+00    5.0     0.01731187        -0.7629646800 -2.00E-01
     8 Broy./Diag. 0.10E+00    5.0     0.00733725        -0.8576775496 -9.47E-02
     9 Broy./Diag. 0.10E+00    5.2     0.00281292        -0.8936752651 -3.60E-02
    10 Broy./Diag. 0.10E+00    5.2     0.00688399        -0.9611550238 -6.75E-02
    11 Broy./Diag. 0.10E+00    5.2     0.01689123        -1.1119850748 -1.51E-01
    12 Broy./Diag. 0.10E+00    5.2     0.00317048        -1.1560672301 -4.41E-02
    13 Broy./Diag. 0.10E+00    5.2     0.00029709        -1.1564153344 -3.48E-04
    14 Broy./Diag. 0.10E+00    5.2     0.00113240        -1.1651506209 -8.74E-03
    15 Broy./Diag. 0.10E+00    5.2     0.00216535        -1.1715233291 -6.37E-03
    16 Broy./Diag. 0.10E+00    5.2     0.00130707        -1.1639233040  7.60E-03
    17 Broy./Diag. 0.10E+00    5.2     0.00056911        -1.1625639559  1.36E-03
    18 Broy./Diag. 0.10E+00    5.3     0.00094288        -1.1683550902 -5.79E-03
    19 Broy./Diag. 0.10E+00    5.2     0.00141597        -1.1684543872 -9.93E-05
    20 Broy./Diag. 0.10E+00    5.3     0.00084816        -1.1674470895  1.01E-03
    21 Broy./Diag. 0.10E+00    5.2     0.00024412        -1.1688951787 -1.45E-03
    22 Broy./Diag. 0.10E+00    5.2     0.00039652        -1.1681017626  7.93E-04
    23 Broy./Diag. 0.10E+00    5.2     0.00018919        -1.1684292424 -3.27E-04
    24 Broy./Diag. 0.10E+00    5.2     0.00009265        -1.1685486027 -1.19E-04
    25 Broy./Diag. 0.10E+00    5.3     0.00017433        -1.1683325458  2.16E-04
    26 Broy./Diag. 0.10E+00    5.2     0.00005689        -1.1685630994 -2.31E-04
    27 Broy./Diag. 0.10E+00    5.2     0.00016769        -1.1682804698  2.83E-04
    28 Broy./Diag. 0.10E+00    5.3     0.00009562        -1.1683620679 -8.16E-05
    29 Broy./Diag. 0.10E+00    5.2     0.00002145        -1.1684890455 -1.27E-04
    30 Broy./Diag. 0.10E+00    5.2     0.00011029        -1.1684154548  7.36E-05
    31 Broy./Diag. 0.10E+00    5.2     0.00000819        -1.1684346980 -1.92E-05
    32 Broy./Diag. 0.10E+00    5.2     0.00010444        -1.1684844738 -4.98E-05
    33 Broy./Diag. 0.10E+00    5.3     0.00000852        -1.1684413819  4.31E-05
    34 Broy./Diag. 0.10E+00    5.3     0.00000296        -1.1683994698  4.19E-05
    35 Broy./Diag. 0.10E+00    5.2     0.00000873        -1.1684386481 -3.92E-05
    36 Broy./Diag. 0.10E+00    5.3     0.00001985        -1.1684489300 -1.03E-05
    37 Broy./Diag. 0.10E+00    5.2     0.00003977        -1.1684615388 -1.26E-05
    38 Broy./Diag. 0.10E+00    5.2     0.00000625        -1.1684793520 -1.78E-05
    39 Broy./Diag. 0.10E+00    5.2     0.00002607        -1.1684673130  1.20E-05
    40 Broy./Diag. 0.10E+00    5.2     0.00000139        -1.1684660147  1.30E-06
    41 Broy./Diag. 0.10E+00    5.3     0.00001287        -1.1684755600 -9.55E-06
    42 Broy./Diag. 0.10E+00    5.3     0.00001996        -1.1684650999  1.05E-05
    43 Broy./Diag. 0.10E+00    5.2     0.00001692        -1.1684630185  2.08E-06
    44 Broy./Diag. 0.10E+00    5.3     0.00000550        -1.1684577635  5.25E-06
    45 Broy./Diag. 0.10E+00    5.2     0.00000340        -1.1684467866  1.10E-05
    46 Broy./Diag. 0.10E+00    5.2     0.00000209        -1.1684524583 -5.67E-06
    47 Broy./Diag. 0.10E+00    5.2     0.00000246        -1.1684513388  1.12E-06
    48 Broy./Diag. 0.10E+00    5.2     0.00001313        -1.1684494085  1.93E-06
    49 Broy./Diag. 0.10E+00    5.2     0.00000104        -1.1684514249 -2.02E-06
    50 Broy./Diag. 0.10E+00    5.2     0.00000106        -1.1684506738  7.51E-07
    51 Broy./Diag. 0.10E+00    5.2     0.00000152        -1.1684512651 -5.91E-07
    52 Broy./Diag. 0.10E+00    5.2     0.00000171        -1.1684519575 -6.92E-07
    53 Broy./Diag. 0.10E+00    5.3     0.00000152        -1.1684518538  1.04E-07
    54 Broy./Diag. 0.10E+00    5.3     0.00000710        -1.1684523224 -4.69E-07
    55 Broy./Diag. 0.10E+00    5.2     0.00000102        -1.1684528735 -5.51E-07
    56 Broy./Diag. 0.10E+00    5.3     0.00000030        -1.1684522556  6.18E-07

  *** SCF run converged in    56 steps ***


  Electronic density on regular grids:         -1.9954460838        0.0045539162
  Core density on regular grids:                2.0000000000       -0.0000000000
  Hard and soft densities (Lebedev):          -10.7157279438      -10.7111742547
  Total Rho_soft + Rho1_hard - Rho1_soft       -1.9999997729
  Total charge density (r-space):               0.0000002271
  Total Rho_soft + Rho0_soft (g-space):         0.0000002208

  Overlap energy of the core charge distribution:               0.00000051136925
  Self energy of the core charge distribution:                 -2.82094791773878
  Core Hamiltonian energy:                                      0.97987437447270
  Hartree energy:                                               1.09124536467058
  Exchange-correlation energy:                                 -0.52651187850759
  Hartree-Fock Exchange energy:                                -0.16445410788158

  GAPW| Exc from hard and soft atomic rho1:                    -0.00268942911706
  GAPW| local Eh = 1 center integrals:                          0.27503082712075

  Total energy:                                                -1.16845225561173

 !-----------------------------------------------------------------------------!
                     Mulliken Population Analysis

 #  Atom  Element  Kind  Atomic population                           Net charge
       1     H        1          1.000000                             -0.000000
       2     H        1          1.000000                              0.000000
 # Total charge                              2.000000                 -0.000000

 !-----------------------------------------------------------------------------!

 !-----------------------------------------------------------------------------!
                           Hirshfeld Charges

  #Atom  Element  Kind  Ref Charge     Population                    Net charge
      1       H      1       1.000          0.932                         0.068
      2       H      1       1.000          0.932                         0.068

  Total Charge                                                            0.136
 !-----------------------------------------------------------------------------!


 RI-RPA section
 --------------

  Used number of processes per group:                                          1
  Maximum allowed memory usage per MPI process:                      1024.00 MiB
  RI_INFO| Cholesky decomposition group size:                                  2
  RI_INFO| Number of groups for auxiliary basis functions                     24

  RI_INFO| RI metric:                                                    COULOMB
  RI_INFO| Number of auxiliary basis functions:                               30
  GENERAL_INFO| Number of basis functions:                                    46
  GENERAL_INFO| Number of occupied orbitals:                                   1
  GENERAL_INFO| Number of virtual orbitals:                                   45
  RI_INFO| Total memory for (ia|K) integrals:                           0.01 MiB
  RI_INFO| Total memory for G0W0-(nm|K) integrals:                      0.48 MiB
  RI_INFO| Total memory for (ij|K) integrals:                           0.00 MiB
  RI_INFO| Total memory for (ab|K) integrals:                           0.46 MiB
  RI_INFO| Group size for frequency integration:                              24
  INTEG_INFO| Clenshaw-Curtius quadrature
  INTEG_INFO| Number of integration points:                                  100
  INTEG_INFO| Number of integration points per RPA group:                    100
  MATRIX_INFO| Number row processes:                                           6
  MATRIX_INFO| Number column processes:                                        4
  MATRIX_INFO| Row block size:                                                 2
  MATRIX_INFO| Column block size:                                              5
  INTEG_INFO| Scaling parameter:                                         0.20000
  INTEG_INFO| Started with Integration point   1 of 100
  INTEG_INFO| Started with Integration point   2 of 100
  INTEG_INFO| Started with Integration point   3 of 100
  INTEG_INFO| Started with Integration point   4 of 100
  INTEG_INFO| Started with Integration point   5 of 100
  INTEG_INFO| Started with Integration point   6 of 100
  INTEG_INFO| Started with Integration point   7 of 100
  INTEG_INFO| Started with Integration point   8 of 100
  INTEG_INFO| Started with Integration point   9 of 100
  INTEG_INFO| Started with Integration point  10 of 100
  INTEG_INFO| Started with Integration point  11 of 100
  INTEG_INFO| Started with Integration point  12 of 100
  INTEG_INFO| Started with Integration point  13 of 100
  INTEG_INFO| Started with Integration point  14 of 100
  INTEG_INFO| Started with Integration point  15 of 100
  INTEG_INFO| Started with Integration point  16 of 100
  INTEG_INFO| Started with Integration point  17 of 100
  INTEG_INFO| Started with Integration point  18 of 100
  INTEG_INFO| Started with Integration point  19 of 100
  INTEG_INFO| Started with Integration point  20 of 100
  INTEG_INFO| Started with Integration point  21 of 100
  INTEG_INFO| Started with Integration point  22 of 100
  INTEG_INFO| Started with Integration point  23 of 100
  INTEG_INFO| Started with Integration point  24 of 100
  INTEG_INFO| Started with Integration point  25 of 100
  INTEG_INFO| Started with Integration point  26 of 100
  INTEG_INFO| Started with Integration point  27 of 100
  INTEG_INFO| Started with Integration point  28 of 100
  INTEG_INFO| Started with Integration point  29 of 100
  INTEG_INFO| Started with Integration point  30 of 100
  INTEG_INFO| Started with Integration point  31 of 100
  INTEG_INFO| Started with Integration point  32 of 100
  INTEG_INFO| Started with Integration point  33 of 100
  INTEG_INFO| Started with Integration point  34 of 100
  INTEG_INFO| Started with Integration point  35 of 100
  INTEG_INFO| Started with Integration point  36 of 100
  INTEG_INFO| Started with Integration point  37 of 100
  INTEG_INFO| Started with Integration point  38 of 100
  INTEG_INFO| Started with Integration point  39 of 100
  INTEG_INFO| Started with Integration point  40 of 100
  INTEG_INFO| Started with Integration point  41 of 100
  INTEG_INFO| Started with Integration point  42 of 100
  INTEG_INFO| Started with Integration point  43 of 100
  INTEG_INFO| Started with Integration point  44 of 100
  INTEG_INFO| Started with Integration point  45 of 100
  INTEG_INFO| Started with Integration point  46 of 100
  INTEG_INFO| Started with Integration point  47 of 100
  INTEG_INFO| Started with Integration point  48 of 100
  INTEG_INFO| Started with Integration point  49 of 100
  INTEG_INFO| Started with Integration point  50 of 100
  INTEG_INFO| Started with Integration point  51 of 100
  INTEG_INFO| Started with Integration point  52 of 100
  INTEG_INFO| Started with Integration point  53 of 100
  INTEG_INFO| Started with Integration point  54 of 100
  INTEG_INFO| Started with Integration point  55 of 100
  INTEG_INFO| Started with Integration point  56 of 100
  INTEG_INFO| Started with Integration point  57 of 100
  INTEG_INFO| Started with Integration point  58 of 100
  INTEG_INFO| Started with Integration point  59 of 100
  INTEG_INFO| Started with Integration point  60 of 100
  INTEG_INFO| Started with Integration point  61 of 100
  INTEG_INFO| Started with Integration point  62 of 100
  INTEG_INFO| Started with Integration point  63 of 100
  INTEG_INFO| Started with Integration point  64 of 100
  INTEG_INFO| Started with Integration point  65 of 100
  INTEG_INFO| Started with Integration point  66 of 100
  INTEG_INFO| Started with Integration point  67 of 100
  INTEG_INFO| Started with Integration point  68 of 100
  INTEG_INFO| Started with Integration point  69 of 100
  INTEG_INFO| Started with Integration point  70 of 100
  INTEG_INFO| Started with Integration point  71 of 100
  INTEG_INFO| Started with Integration point  72 of 100
  INTEG_INFO| Started with Integration point  73 of 100
  INTEG_INFO| Started with Integration point  74 of 100
  INTEG_INFO| Started with Integration point  75 of 100
  INTEG_INFO| Started with Integration point  76 of 100
  INTEG_INFO| Started with Integration point  77 of 100
  INTEG_INFO| Started with Integration point  78 of 100
  INTEG_INFO| Started with Integration point  79 of 100
  INTEG_INFO| Started with Integration point  80 of 100
  INTEG_INFO| Started with Integration point  81 of 100
  INTEG_INFO| Started with Integration point  82 of 100
  INTEG_INFO| Started with Integration point  83 of 100
  INTEG_INFO| Started with Integration point  84 of 100
  INTEG_INFO| Started with Integration point  85 of 100
  INTEG_INFO| Started with Integration point  86 of 100
  INTEG_INFO| Started with Integration point  87 of 100
  INTEG_INFO| Started with Integration point  88 of 100
  INTEG_INFO| Started with Integration point  89 of 100
  INTEG_INFO| Started with Integration point  90 of 100
  INTEG_INFO| Started with Integration point  91 of 100
  INTEG_INFO| Started with Integration point  92 of 100
  INTEG_INFO| Started with Integration point  93 of 100
  INTEG_INFO| Started with Integration point  94 of 100
  INTEG_INFO| Started with Integration point  95 of 100
  INTEG_INFO| Started with Integration point  96 of 100
  INTEG_INFO| Started with Integration point  97 of 100
  INTEG_INFO| Started with Integration point  98 of 100
  INTEG_INFO| Started with Integration point  99 of 100
  INTEG_INFO| Started with Integration point 100 of 100
  PERFORMANCE| Average DGEMM flop rate (Gflops / MPI rank):                 0.00
  
  
  ******************************************************************************
  **                                                                          **
  **                        GW QUASIPARTICLE ENERGIES                         **
  **                                                                          **
  ******************************************************************************
   
   
  The GW quasiparticle energies are calculated according to: 
   
                      E_GW = E_SCF + Sigc(E_GW) + Sigx - vxc 
   
  Upper equation is solved self-consistently for E_GW, see Eq. (12) in J. Phys.
  Chem. Lett. 9, 306 (2018), doi: 10.1021/acs.jpclett.7b02740
  
  
  ------------
  G0W0 results
  ------------
   
  Molecular orbital   E_SCF (eV)       Sigc (eV)   Sigx-vxc (eV)       E_GW (eV)
     1 ( occ )          -12.0021          0.0994         -4.1614        -16.0641
     2 ( vir )            0.7985         -0.1831          1.3157          1.9312
     3 ( vir )            1.3783         -0.1077          1.0576          2.3282
     4 ( vir )            1.3783         -0.1077          1.0576          2.3282
     5 ( vir )            1.5521         -0.1564          1.1398          2.5355
     6 ( vir )            3.2559         -0.0734          0.7177          3.9003
     7 ( vir )            3.2559         -0.0734          0.7177          3.9003
     8 ( vir )            3.6202         -0.1084          0.9427          4.4545
     9 ( vir )            3.8853         -0.4014          2.0724          5.5563
    10 ( vir )            4.9322         -0.0897          1.1197          5.9621
    11 ( vir )            4.9329         -0.0897          1.1190          5.9621
    12 ( vir )           12.6945         -0.8985          2.5517         14.3476
    13 ( vir )           13.8604         -0.7309          2.3714         15.5009
    14 ( vir )           14.8923         -0.4835          3.0140         17.4228
    15 ( vir )           14.8923         -0.4554          3.0140         17.4509
    16 ( vir )           15.7000         -0.5590          3.3651         18.5062
    17 ( vir )           15.8380         -0.3796          1.8676         17.3260
    18 ( vir )           15.8381         -0.4219          1.8675         17.2837
    19 ( vir )           21.0962         -1.0479          3.8597         23.9080
    20 ( vir )           21.0962         -1.0515          3.8597         23.9044
    21 ( vir )           24.9135         -1.5893          3.9364         27.2606
    22 ( vir )           24.9135         -1.5176          3.9364         27.3323
    23 ( vir )           29.7665         -2.0457          4.8452         32.5661
    24 ( vir )           48.9251         -1.7989          5.9463         53.0725
    25 ( vir )           59.3535          2.2956          7.1916         68.8407
    26 ( vir )           66.4719         -3.7700          6.9197         69.6216
    27 ( vir )           66.4719         -3.5276          6.9197         69.8640
    28 ( vir )           84.4654         -0.3550          7.3165         91.4270
    29 ( vir )           84.4654          1.8482          7.3165         93.6302
    30 ( vir )           87.2619         -6.9606          7.7205         88.0218
    31 ( vir )           87.2619         -5.0427          7.7205         89.9396
    32 ( vir )           90.5547         -6.1529          7.1845         91.5864
    33 ( vir )           99.9766         -5.6155          7.0046        101.3657
    34 ( vir )           99.9766          3.0610          7.0046        110.0422
    35 ( vir )          126.1277          1.3296          8.1540        135.6113
    36 ( vir )          126.8094         -6.9133          6.6968        126.5929
    37 ( vir )          126.8094          3.3701          6.6968        136.8764
    38 ( vir )          162.1796          0.5068          7.2108        169.8971
    39 ( vir )          162.1796          0.7430          7.2108        170.1334
    40 ( vir )          176.5822          2.3260         10.1440        189.0522
    41 ( vir )          289.9705          0.1704          4.9881        295.1290
    42 ( vir )          809.3451          0.0458          7.1867        816.5776
    43 ( vir )          809.3451          0.0457          7.1867        816.5775
    44 ( vir )         1004.0894          0.3035         15.7912       1020.1842
    45 ( vir )         1073.8603          0.3812         14.3258       1088.5673
    46 ( vir )         1392.3716          0.1481         11.5851       1404.1048
   
  G0W0 HOMO-LUMO gap (eV)                                                17.9953
  
  ------------------------------------------------------------------------------
  
 *******************************************************************************
 **                                                                           **
 **           Bethe Salpeter equation (BSE) for excitation energies           **
 **               solved without Tamm-Dancoff approximation (TDA)             **
 **                                                                           **
 *******************************************************************************
  
 BSE| No cutoff given for occupied orbitals
 BSE| No cutoff given for empty orbitals
 BSE| First occupied index                                                     1
 BSE| Last empty index (not MO index!)                                        45
 BSE| Energy of first occupied index [eV]                                -16.064
 BSE| Energy of last empty index [eV]                                   1404.105
 BSE| Energy difference of first occupied index to HOMO [eV]              -0.000
 BSE| Energy difference of last empty index to LUMO [eV]                1402.174
 BSE| Number of GW-corrected occupied MOs                                      1
 BSE| Number of GW-corrected empty MOs                                        45
 BSE|
 BSE| No truncation of BSE matrices applied
 BSE|
 BSE| Total peak memory estimate from BSE [GB]                         1.509E-04
 BSE| Peak memory estimate per MPI rank from BSE [GB]                      0.000
 BSE|
 BSE| Diagonalizing aux. matrix with size of A. This will take around 0.E+00 s.
 BSE| Diagonalizing C. This will take around 0.E+00 s.
 BSE|
 BSE|
 BSE| **************************************************************************
 BSE| *      Full ("ABBA") Bethe Salpeter equation (BSE) (i.e. without TDA)    *
 BSE| **************************************************************************
 BSE|
 BSE| The excitations are calculated by diagonalizing the BSE without the TDA:
 BSE|
 BSE|                |A B| |X^n|       |1  0| |X^n|
 BSE|                |B A| |Y^n| = ^n |0 -1| |Y^n|
 BSE|
 BSE| i.e. in index notation:
 BSE|
 BSE|   sum_jb ( A_ia,jb   X_jb^n + B_ia,jb   Y_jb^n ) = ^n X_ia^n
 BSE| - sum_jb ( B_ia,jb   X_jb^n + A_ia,jb   Y_jb^n ) = ^n Y_ia^n
 BSE|
 BSE|
 BSE| i,j:       occupied molecular orbitals, i.e. state in          [   1,   1]
 BSE| a,b:       unoccupied molecular orbitals, i.e. state in        [   2,  46]
 BSE| n:         Excitation index
 BSE|
 BSE| A_ia,jb = (_a-_i) _ij _ab +  * v_ia,jb - W_ij,ab
 BSE| B_ia,jb =  * v_ia,jb - W_ib,aj
 BSE|
 BSE| prelim Ref.: Eqs. (24-27),(30),(35)
 BSE| in PRB 92,045209 (2015); http://dx.doi.org/10.1103/PhysRevB.92.045209 .
 BSE|
 BSE| The BSE is solved for ^n and X_ia^n as a hermitian problem, e.g. Eq.(42)
 BSE| in PRB 92,045209 (2015); http://dx.doi.org/10.1103/PhysRevB.92.045209 .
 BSE|
 BSE| _...:                 GW quasiparticle energy
 BSE| _...:                 Kronecker delta
[...]
 MP_Group              200
 MP_Bcast              708                 238989.
 MP_Allreduce         6146                   1859.
 MP_Sync               707
 MP_Alltoall          1584              108903455.
 MP_SendRecv          2671                 529906.
 MP_ISendRecv         5290                 273881.
 MP_Wait             16044
 MP_comm_split         110
 MP_ISend            10127                1879456.
 MP_IRecv            10098                1884854.
 -------------------------------------------------------------------------------


 -------------------------------------------------------------------------------
 -                                                                             -
 -                           R E F E R E N C E S                               -
 -                                                                             -
 -------------------------------------------------------------------------------
 
 CP2K version 2025.1 (Development Version), the CP2K developers group (2025).
 CP2K is freely available from https://www.cp2k.org/ .
 
 T. D. Kuehne, M. Iannuzzi, M. Del Ben, V. V. Rybkin, P. Seewald, F. Stein, T. 
 Laino, R. Z. Khaliullin, O. Schuett, F. Schiffmann, D. Golze, J. Wilhelm, S. 
 Chulkov, M. H. Bani-Hashemian, V. Weber, U. Borstnik, M. Taillefumier, A. S. 
 Jakobovits, A. Lazzaro, H. Pabst, T. Mueller, R. Schade, M. Guidon, S. 
 Andermatt, N. Holmberg, G. K. Schenter, A. Hehn, A. Bussy, F. Belleflamme, G. 
 Tabacchi, A. Gloess, M. Lass, I. Bethune, C. J. Mundy, C. Plessl, M. Watkins, 
 J. VandeVondele, M. Krack, J. Hutter.
 J. Chem. Phys. 152, 194103 (2020).
 CP2K: An electronic structure and molecular dynamics software package - 
 Quickstep: Efficient and accurate electronic structure calculations.
 https://doi.org/10.1063/5.0007045

 J. Wilhelm, D. Golze, L. Talirz, J. Hutter, C. A. Pignedoli.
 J. Phys. Chem. Lett. 9, 306-312 (2018).
 Toward GW calculations on thousands of atoms.
 https://doi.org/10.1021/acs.jpclett.7b02740

 J. Wilhelm, J. Hutter.
 Phys. Rev. B 95, 235123 (2017).
 Periodic GW calculations in the Gaussian and plane-waves scheme.
 https://doi.org/10.1103/PhysRevB.95.235123

 O. Schuett, P. Messmer, J. Hutter, J. VandeVondele.
 Electronic Structure Calculations on Graphics Processing Units, 173-190 (2016).
 GPU-Accelerated Sparse Matrix-Matrix Multiplication for Linear Scaling Density 
 Functional Theory.
 https://doi.org/10.1002/9781118670712.ch8

 J. Wilhelm, M. Del Ben, J. Hutter.
 J. Chem. Theory Comput. 12, 3623-3635 (2016).
 GW in the Gaussian and plane waves scheme with application to linear acenes.
 https://doi.org/10.1021/acs.jctc.6b00380

 M. Del Ben, O. Schuett, T. Wentz, P. Messmer, J. Hutter, J. VandeVondele.
 Comput. Phys. Commun. 187, 120-129 (2015).
 Enabling simulation at the fifth rung of DFT: Large scale RPA calculations with 
 excellent time to solution.
 https://doi.org/10.1016/j.cpc.2014.10.021

 J. Hutter, M. Iannuzzi, F. Schiffmann, J. VandeVondele.
 WIREs Comput Mol Sci. 4, 15-25 (2014).
 CP2K: atomistic simulations of condensed matter systems.
 https://doi.org/10.1002/wcms.1159

 U. Borstnik, J. VandeVondele, V. Weber, J. Hutter.
 Parallel Comput. 40, 47-58 (2014).
 Sparse matrix multiplication: The distributed block-compressed sparse row 
 library.
 https://doi.org/10.1016/j.parco.2014.03.012

 M. Del Ben, J. Hutter, J. VandeVondele.
 J. Chem. Theory Comput. 9, 2654-2671 (2013).
 Electron Correlation in the Condensed Phase from a Resolution of Identity 
 Approach Based on the Gaussian and Plane Waves Scheme.
 https://doi.org/10.1021/ct4002202

 M. Del Ben, J. Hutter, J. VandeVondele.
 J. Chem. Theory Comput. 8, 4177-4188 (2012).
 Second-Order Moller-Plesset Perturbation Theory in the Condensed Phase: An 
 Efficient and Massively Parallel Gaussian and Plane Waves Approach.
 https://doi.org/10.1021/ct300531w

 M. Guidon, J. Hutter, J. VandeVondele.
 J. Chem. Theory Comput. 5, 3010-3021 (2009).
 Robust Periodic Hartree-Fock Exchange for Large-Scale Simulations Using 
 Gaussian Basis Sets.
 https://doi.org/10.1021/ct900494g

 M. Guidon, F. Schiffmann, J. Hutter, J. VandeVondele.
 J. Chem. Phys. 128, 214104 (2008).
 Ab initio molecular dynamics using hybrid density functionals.
 https://doi.org/10.1063/1.2931945

 L. Genovese, T. Deutsch, S. Goedecker.
 J. Chem. Phys. 127, 054704 (2007).
 Efficient and accurate three-dimensional Poisson solver for surface problems.
 https://doi.org/10.1063/1.2754685

 J. VandeVondele, J. Hutter.
 J. Chem. Phys. 127, 114105 (2007).
 Gaussian basis sets for accurate calculations on molecular systems in gas and 
 condensed phases.
 https://doi.org/10.1063/1.2770708

 L. Genovese, T. Deutsch, A. Neelov, S. Goedecker, G. Beylkin.
 J. Chem. Phys. 125, 074105 (2006).
 Efficient solution of Poisson's equation with free boundary conditions.
 https://doi.org/10.1063/1.2335442

 M. Frigo, S. G. Johnson.
 Proc. IEEE 93, 216-231 (2005).
 The design and implementation of FFTW3.
 https://doi.org/10.1109/JPROC.2004.840301

 M. Krack, M. Parrinello.
 Phys. Chem. Chem. Phys. 2, 2105-2112 (2000).
 All-electron ab-initio molecular dynamics.
 https://doi.org/10.1039/b001167n

 G. Lippert, J. Hutter, M. Parrinello.
 Theor. Chem. Acc. 103, 124-140 (1999).
 The Gaussian and augmented-plane-wave density functional method for ab initio 
 molecular dynamics simulations.
 https://doi.org/10.1007/s002140050523

 J. P. Perdew, K. Burke, M. Ernzerhof.
 Phys. Rev. Lett. 77, 3865-3868 (1996).
 Generalized gradient approximation made simple.
 https://doi.org/10.1103/PhysRevLett.77.3865


 -------------------------------------------------------------------------------
 -                                                                             -
 -                                T I M I N G                                  -
 -                                                                             -
 -------------------------------------------------------------------------------
 SUBROUTINE                       CALLS  ASD         SELF TIME        TOTAL TIME
                                MAXIMUM       AVERAGE  MAXIMUM  AVERAGE  MAXIMUM
 CP2K                                 1  1.0    0.047    0.076  300.879  300.880
 qs_energies                          1  2.0    0.001    0.001  299.629  299.862
 scf_env_do_scf                       1  3.0    0.000    0.000  295.327  295.328
 scf_env_do_scf_inner_loop           56  4.0    0.002    0.003  295.327  295.327
 qs_ks_build_kohn_sham_matrix        57  7.0    0.009    0.010  224.760  224.765
 qs_ks_update_qs_env                 56  5.0    0.000    0.000  222.361  222.366
 rebuild_ks_matrix                   56  6.0    0.000    0.000  222.356  222.362
 fft_wrap_pw1pw2                   1188  9.9    0.028    0.033  133.706  134.900
 fft_wrap_pw1pw2_250                846 11.1    6.026    6.734  129.703  131.112
 fft3d_ps                          1188 11.9   57.863   60.018  104.688  105.708
 pw_poisson_solve                    57  8.0    2.488    2.527   91.292   91.344
 qs_vxc_create                       57  8.0    0.001    0.001   80.784   80.784
 xc_vxc_pw_create                    56  9.0    1.487    1.562   80.783   80.783
 ps_wavelet_solve                    57  9.0   51.264   54.125   60.278   60.426
 xc_pw_derive                       336 11.0    0.004    0.005   58.300   59.115
 mp_alltoall_d54                     57 10.0    5.179   46.948    5.179   46.948
 xc_rho_set_and_dset_create          56 10.0    1.195    1.407   40.209   40.993
 gspace_mixing                       55  5.0    1.074    1.085   39.627   39.627
 xc_pw_divergence                    56 10.0    0.002    0.003   38.448   39.113
 mp_alltoall_z22v                  1188 13.9   28.319   36.333   28.319   36.333
 qs_rho_update_rho_low               57  5.0    0.001    0.001   33.621   33.622
 calculate_rho_elec                  57  6.0    1.114    1.125   33.575   33.575
 broyden_mixing                      55  6.0   29.826   30.188   30.280   30.602
 x_to_yz                            621 13.1   12.544   12.766   26.576   27.066
 yz_to_x                            567 12.8    5.946    7.208   20.233   25.391
 density_rs2pw                       57  7.0    0.004    0.005   25.163   25.350
 sum_up_and_integrate                57  8.0    0.001    0.001   17.795   17.823
 integrate_v_rspace                  57  9.0    0.001    0.002   17.445   17.504
 potential_pw2rs                     57 10.0    0.050    0.054   17.255   17.326
 prepare_gapw_den                    57  8.0    0.001    0.001   14.108   14.345
 put_rho0_on_grid                    57  9.0    1.116    1.127   13.759   13.995
 pw_scatter_p                       621 12.1    9.817    9.960    9.817    9.960
 transfer_pw2rs                     286 10.6    0.005    0.005    9.841    9.894
 pw_gather_p                        567 11.8    8.145    8.766    8.145    8.766
 xc_functional_eval                 168 10.9    0.001    0.001    8.128    8.662
 pbe_lda_eval                       168 11.9    8.127    8.662    8.127    8.662
 transfer_rs2pw                     286  8.4    0.008    0.009    8.431    8.540
 mp_waitany                        9632 11.5    6.673    7.434    6.673    7.434
 transfer_pw2rs_250                 115 10.9    2.684    2.839    7.183    7.356
 grid_collocate_task_list            57  7.0    7.076    7.166    7.076    7.166
 pw_derive                          507 11.3    6.731    7.101    6.731    7.101
 transfer_rs2pw_250                 115 10.0    2.818    2.901    6.197    6.343
 hfx_ks_matrix                       57  8.0    0.002    0.002    5.510    5.578
 integrate_four_center               57  9.0    1.190    2.443    5.507    5.574
 mp_sync                            707  9.3    3.762    5.129    3.762    5.129
 integrate_vhg0_rspace               57  8.0    0.014    0.017    4.475    4.482
 mp_alltoall_d45                     58 10.0    3.225    4.230    3.225    4.230
 mp_sum_d                          1663  6.0    2.075    3.977    2.075    3.977
 fft_wrap_pw1pw2_90                 114 10.5    0.169    0.240    3.295    3.889
 pw_copy                            850 10.6    3.601    3.819    3.601    3.819
 cp2k_distribution_to_z_slices       57  9.0    2.262    2.328    3.330    3.578
 pw_poisson_set                      58  8.9    0.002    0.002    3.362    3.414
 mp2_main                             1  3.0    0.000    0.000    3.102    3.335
 pw_copy_to_array                   567 11.8    3.039    3.233    3.039    3.233
 mp_alltoall_d11v                  1032  9.4    2.158    2.957    2.158    2.957
 integrate_four_center_main          57 10.0    0.011    0.072    0.241    2.845
 integrate_four_center_bin         4410 11.0    0.229    2.827    0.229    2.827
 pw_axpy                            565  9.3    2.503    2.728    2.503    2.728
 compute_vec_Sigma_x_minus_vxc_       1  4.0    0.000    0.000    2.407    2.407
 rs_grid_zero                       287 11.1    2.236    2.291    2.236    2.291
 pw_integral_ab_c1d_c1d_gs           57  9.0    1.693    1.863    1.990    2.105
 pw_copy_from_array                 621 12.1    1.761    2.092    1.761    2.092
 pw_poisson_rebuild                  57  9.0    0.000    0.000    1.824    1.853
 ps_wavelet_create                    1 10.0    0.000    0.000    1.824    1.853
 RS_z_slice_distribution              1 11.0    1.672    1.728    1.824    1.853
 transfer_pw2rs_90                   57 12.0    0.433    0.473    1.312    1.411
 pw_zero                            338 10.3    1.175    1.221    1.175    1.221
 transfer_rs2pw_90                   57  9.0    0.348    0.374    1.054    1.139
 transfer_pw2rs_30                   57 12.0    0.639    0.678    1.034    1.074
 mp_isend_dv                       9785 11.6    0.767    1.063    0.767    1.063
 init_scf_run                         1  3.0    0.000    0.000    0.962    0.963
 transfer_rs2pw_30                   57  9.0    0.489    0.518    0.938    0.962
 scf_env_initial_rho_setup            1  4.0    0.000    0.000    0.956    0.957
 mp_waitall_1                     10146 12.1    0.644    0.926    0.644    0.926
 qs_init_subsys                       1  2.0    0.008    0.009    0.855    0.855
 qs_env_setup                         1  3.0    0.000    0.000    0.844    0.845
 qs_env_rebuild_pw_env                2  3.5    0.000    0.000    0.843    0.844
 pw_env_rebuild                       1  5.0    0.001    0.001    0.842    0.843
 pw_grid_setup                        4  6.0    0.000    0.000    0.834    0.835
 pw_grid_setup_internal               4  7.0    0.019    0.024    0.834    0.835
 scale_and_distribute               114 10.0    0.763    0.791    0.763    0.791
 Vh_1c_gg_integrals                  57  8.0    0.008    0.064    0.246    0.753
 mp_sum_dm                          403  7.6    0.471    0.685    0.471    0.685
 pw_grid_sort                         4  8.0    0.473    0.477    0.669    0.676
 mp_sendrecv_dv                    2622 10.0    0.593    0.630    0.593    0.630
 fft_wrap_pw1pw2_30                 114 10.5    0.027    0.030    0.553    0.583
 calculate_vxc_atom                  57  8.0    0.013    0.083    0.582    0.582
 mp_isend_dm3                      1376 11.5    0.324    0.559    0.324    0.559
 mp_irecv_dm3                      1376 11.5    0.329    0.540    0.329    0.540
 mp_max_i                           534  2.7    0.239    0.535    0.239    0.535
 mp2_gpw_main                         1  4.0    0.000    0.000    0.510    0.520
 mp_sum_dv                         2416 10.8    0.365    0.501    0.365    0.501
 gaVxcgb_GC                          56  9.0    0.038    0.459    0.038    0.459
 rpa_ri_compute_en                    1  5.0    0.000    0.000    0.429    0.430
 rpa_num_int                          1  6.0    0.001    0.001    0.427    0.427
 pw_scale                           225  9.5    0.368    0.417    0.368    0.417
 mp_sum_i                            17  9.9    0.234    0.401    0.234    0.401
 mp2_main_alloc_hfx                   1  4.0    0.167    0.401    0.167    0.401
 restraint_control                    1  2.0    0.000    0.000    0.234    0.401
 qs_scf_new_mos                      56  5.0    0.001    0.001    0.365    0.368
 calculate_rho_atom                  57  9.0    0.083    0.341    0.083    0.341
 transfer_pw2rs_10                   57 12.0    0.137    0.144    0.308    0.335
 compute_GW_self_energy             100  7.0    0.001    0.001    0.281    0.305
 mixing_init                          1  5.0    0.287    0.290    0.290    0.291
 calc_screening_functions             1 10.0    0.254    0.260    0.273    0.279
 compute_GW_self_energy_deep        100  8.0    0.214    0.238    0.254    0.279
 mp_isendrecv_dv                   5244 12.0    0.160    0.276    0.160    0.276
 transfer_rs2pw_10                   57  9.0    0.091    0.095    0.235    0.241
 eigensolver_symm                    57  6.0    0.002    0.002    0.201    0.201
 cp_fm_syevd                         62  7.0    0.000    0.000    0.199    0.200
 sort_shells                          4  9.0    0.196    0.200    0.196    0.200
 xc_pw_smooth                        56 10.0    0.000    0.000    0.154    0.199
 rs_gather_matrices                  57 10.0    0.001    0.003    0.137    0.195
 grid_integrate_task_list            57 10.0    0.052    0.170    0.052    0.170
 cp_fm_redistribute_end              62  8.0    0.093    0.166    0.094    0.167
 scf_post_calculation_gpw             1  3.0    0.000    0.000    0.149    0.149
 write_available_results              1  4.0    0.000    0.000    0.148    0.149
 write_mo_free_results                1  5.0    0.026    0.027    0.148    0.148
 cp_fm_syevd_base                    62  8.0    0.073    0.146    0.073    0.146
 fft_wrap_pw1pw2_10                 114 10.5    0.006    0.008    0.127    0.139
 calculate_dm_sparse                 56  6.0    0.000    0.000    0.123    0.124
 cp_dbcsr_plus_fm_fm_t               56  7.0    0.001    0.001    0.122    0.123
 pw_grid_assign                       4  8.0    0.103    0.108    0.105    0.108
 dbcsr_multiply_generic              77  8.1    0.004    0.004    0.099    0.102
 qs_energies_init_hamiltonians        1  3.0    0.000    0.000    0.088    0.088
 rpa_num_int_RPA_matrix_operati     100  7.0    0.001    0.002    0.088    0.088
 build_core_hamiltonian_matrix        1  4.0    0.000    0.000    0.085    0.085
 overlap_condnum                      1  5.0    0.000    0.000    0.083    0.083
 parallel_gemm_fm                   332  8.6    0.000    0.000    0.078    0.079
 parallel_gemm_fm_gemm              332  9.6    0.000    0.000    0.078    0.079
 cp_fm_gemm                         332 10.6    0.077    0.078    0.077    0.078
 mp_irecv_dv                       9770 11.6    0.051    0.073    0.051    0.073
 mp2_ri_gpw_compute_in                1  5.0    0.000    0.000    0.067    0.067
 calc_mat_Q                         100  8.0    0.000    0.000    0.065    0.066
 contract_S_to_Q                    100  9.0    0.000    0.000    0.064    0.065
 mp2_ri_gpw_compute_in_loop           1  6.0    0.000    0.000    0.064    0.064
 arnoldi_conjugate_gradient           5  6.0    0.002    0.002    0.064    0.064
 hirshfeld_integration                1  6.0    0.000    0.000    0.061    0.063
 calculate_hirshfeld_normalizat       1  6.0    0.000    0.000    0.059    0.061
 contract_B_L                         4  7.0    0.001    0.001    0.057    0.059
 dbcsr_complete_redistribute        191  8.4    0.007    0.009    0.057    0.058
 copy_dbcsr_to_fm                    75  6.4    0.001    0.002    0.053    0.056
 make_m2s                           154  9.1    0.003    0.003    0.052    0.054
 integrate_four_center_getP          57 10.0    0.003    0.003    0.042    0.050
 cp_fm_to_fm_submat_general         112 10.1    0.049    0.050    0.049    0.050
 calculate_rho_atom_coeff            57  6.0    0.009    0.019    0.046    0.046
 create_qs_kind_set                   1  2.0    0.000    0.000    0.041    0.042
 read_qs_kind                         1  3.0    0.012    0.016    0.041    0.042
 offload_free_buffer                 65  8.3    0.033    0.040    0.033    0.040
 dbt_total                            8  8.0    0.000    0.000    0.040    0.040
 dbcsr_sym_matrix_vector_mult       280  7.0    0.004    0.005    0.029    0.038
 dbt_contract                         4  9.0    0.001    0.001    0.037    0.037
 vxc_of_r_new                       112  9.0    0.000    0.005    0.003    0.036
 dbcsr_finalize                    1664 10.8    0.006    0.011    0.019    0.034
 cp_fm_redistribute_start            62  8.0    0.025    0.026    0.032    0.033
 multiply_cannon                     77  9.1    0.005    0.006    0.031    0.032
 copy_fm_to_dbcsr                   116  8.1    0.000    0.000    0.031    0.032
 pw_grid_remap                        4  8.0    0.014    0.014    0.026    0.032
 parser_read_line                  1558  4.0    0.001    0.001    0.029    0.031
 parser_read_line_low                 5  5.0    0.004    0.011    0.029    0.031
 powell_optimize                  11545 11.0    0.029    0.030    0.029    0.030
 start_bse_calculation                1  7.0    0.000    0.000    0.030    0.030
 -------------------------------------------------------------------------------

 The number of warnings for this run is : 1
 
 -------------------------------------------------------------------------------
  **** **** ******  **  PROGRAM ENDED AT                 2025-03-16 12:09:12.629
 ***** ** ***  *** **   PROGRAM RAN ON                              i05r01c05s06
 **    ****   ******    PROGRAM RAN BY                                   di38fab
 ***** **    ** ** **   PROGRAM PROCESS ID                                251810
  **** **  *******  **  PROGRAM STOPPED IN /hppfs/scratch/04/di38fab/05_MOL/W4-1
                                           1+ALK/h2/TZVP/GW+BSE/1e-3
