 DBCSR| CPU Multiplication driver                                           BLAS (U)
 DBCSR| Multrec recursion limit                                              512 (U)
 DBCSR| Multiplication stack size                                           1000 (D)
 DBCSR| Maximum elements for images                                    UNLIMITED (U)
 DBCSR| Multiplicative factor virtual images                                   1 (U)
 DBCSR| Use multiplication densification                                       T (D)
 DBCSR| Multiplication size stacks                                             3 (U)
 DBCSR| Use memory pool for CPU allocation                                     F (U)
 DBCSR| Number of 3D layers                                               SINGLE (U)
 DBCSR| Use MPI memory allocation                                              F (U)
 DBCSR| Use RMA algorithm                                                      F (U)
 DBCSR| Use Communication thread                                               T (U)
 DBCSR| Communication thread load                                             75 (D)
 DBCSR| MPI: My process id                                                     0
 DBCSR| MPI: Number of processes                                              24
 DBCSR| OMP: Current number of threads                                         4
 DBCSR| OMP: Max number of threads                                             4
 DBCSR| Split modifier for TAS multiplication algorithm                  1.0E+00 (U)


  **** **** ******  **  PROGRAM STARTED AT               2025-03-16 13:55:42.696
 ***** ** ***  *** **   PROGRAM STARTED ON                          i01r11c05s12
 **    ****   ******    PROGRAM STARTED BY                               di38fab
 ***** **    ** ** **   PROGRAM PROCESS ID                               1076588
  **** **  *******  **  PROGRAM STARTED IN /hppfs/scratch/04/di38fab/05_MOL/W4-1
                                           1+ALK/nh/DZVP/GW+BSE/1e-3

 CP2K| version string:                 CP2K version 2025.1 (Development Version)
 CP2K| source code revision number:                                  git:d2e611a
 CP2K| cp2kflags: omp libint fftw3 libxc parallel scalapack max_contr=4         
 CP2K| is freely available from                            https://www.cp2k.org/
 CP2K| Program compiled at                       Thu 06 Mar 2025 05:09:20 PM CET
 CP2K| Program compiled on                                               login02
 CP2K| Program compiled for                                        Supermuc-foss
 CP2K| Data directory path                  /hppfs/work/pn36zo/di38fab/cp2k/data
 CP2K| Input file name                                                    GW.inp

 GLOBAL| Force Environment number                                              1
 GLOBAL| Basis set file name            /hppfs/scratch/04/di38fab/04_TMD/BASIS_A
 GLOBAL| Potential file name            /hppfs/work/pn36zo/di38fab/cp2k/data/ALL
 GLOBAL| MM Potential file name                                     MM_POTENTIAL
 GLOBAL| Coordinate file name                                      __STD_INPUT__
 GLOBAL| Method name                                                        CP2K
 GLOBAL| Project name                                                       MoS2
 GLOBAL| Run type                                                         ENERGY
 GLOBAL| FFT library                                                       FFTW3
 GLOBAL| Diagonalization library                                       ScaLAPACK
 GLOBAL| DGEMM library                                                      BLAS
 GLOBAL| Orthonormality check for eigenvectors                          DISABLED
 GLOBAL| Matrix multiplication library                                 ScaLAPACK
 GLOBAL| All-to-all communication in single precision                          F
 GLOBAL| FFTs using library dependent lengths                                  F
 GLOBAL| Grid backend                                                       AUTO
 GLOBAL| Global print level                                               MEDIUM
 GLOBAL| MPI I/O enabled                                                       T
 GLOBAL| Total number of message passing processes                            24
 GLOBAL| Number of threads for this process                                    4
 GLOBAL| This output is from process                                           0
 GLOBAL| OpenMP stack size per thread (OMP_STACKSIZE)                    default
 GLOBAL| CPU model name             Intel(R) Xeon(R) Platinum 8174 CPU @ 3.10GHz

 MEMORY| system memory details [Kb]
 MEMORY|                        rank 0           min           max       average
 MEMORY| MemTotal             98436664      98436660      98436664      98436662
 MEMORY| MemFree              84081172      84053428      84081172      84067300
 MEMORY| Buffers                     0             0             0             0
 MEMORY| Cached                2398660       2376988       2398660       2387824
 MEMORY| Slab                  1209128       1209128       1234504       1221816
 MEMORY| SReclaimable           263552        263552        273620        268586
 MEMORY| MemLikelyFree        86743384      86704036      86743384      86723710


 *** Fundamental physical constants (SI units) ***

 *** Literature: B. J. Mohr and B. N. Taylor,
 ***             CODATA recommended values of the fundamental physical
 ***             constants: 2006, Web Version 5.1
 ***             http://physics.nist.gov/constants

 Speed of light in vacuum [m/s]                             2.99792458000000E+08
 Magnetic constant or permeability of vacuum [N/A**2]       1.25663706143592E-06
 Electric constant or permittivity of vacuum [F/m]          8.85418781762039E-12
 Planck constant (h) [J*s]                                  6.62606896000000E-34
 Planck constant (h-bar) [J*s]                              1.05457162825177E-34
 Elementary charge [C]                                      1.60217648700000E-19
 Electron mass [kg]                                         9.10938215000000E-31
 Electron g factor [ ]                                     -2.00231930436220E+00
 Proton mass [kg]                                           1.67262163700000E-27
 Fine-structure constant                                    7.29735253760000E-03
 Rydberg constant [1/m]                                     1.09737315685270E+07
 Avogadro constant [1/mol]                                  6.02214179000000E+23
 Boltzmann constant [J/K]                                   1.38065040000000E-23
 Atomic mass unit [kg]                                      1.66053878200000E-27
 Bohr radius [m]                                            5.29177208590000E-11

 *** Conversion factors ***

 [u] -> [a.u.]                                              1.82288848426455E+03
 [Angstrom] -> [Bohr] = [a.u.]                              1.88972613288564E+00
 [a.u.] = [Bohr] -> [Angstrom]                              5.29177208590000E-01
 [a.u.] -> [s]                                              2.41888432650478E-17
 [a.u.] -> [fs]                                             2.41888432650478E-02
 [a.u.] -> [J]                                              4.35974393937059E-18
 [a.u.] -> [N]                                              8.23872205491840E-08
 [a.u.] -> [K]                                              3.15774647902944E+05
 [a.u.] -> [kJ/mol]                                         2.62549961709828E+03
 [a.u.] -> [kcal/mol]                                       6.27509468713739E+02
 [a.u.] -> [Pa]                                             2.94210107994716E+13
 [a.u.] -> [bar]                                            2.94210107994716E+08
 [a.u.] -> [atm]                                            2.90362800883016E+08
 [a.u.] -> [eV]                                             2.72113838565563E+01
 [a.u.] -> [Hz]                                             6.57968392072181E+15
 [a.u.] -> [1/cm] (wave numbers)                            2.19474631370540E+05
 [a.u./Bohr**2] -> [1/cm]                                   5.14048714338585E+03
 

 CELL_TOP| Volume [angstrom^3]:                                     27000.000000
 CELL_TOP| Vector a [angstrom    30.000     0.000     0.000   |a| =    30.000000
 CELL_TOP| Vector b [angstrom     0.000    30.000     0.000   |b| =    30.000000
 CELL_TOP| Vector c [angstrom     0.000     0.000    30.000   |c| =    30.000000
 CELL_TOP| Angle (b,c), alpha [degree]:                                90.000000
 CELL_TOP| Angle (a,c), beta  [degree]:                                90.000000
 CELL_TOP| Angle (a,b), gamma [degree]:                                90.000000
 CELL_TOP| Numerically orthorhombic:                                         YES
 CELL_TOP| Periodicity                                                      NONE

 GENERATE|  Preliminary Number of Bonds generated:                             0
 GENERATE|  Achieved consistency in connectivity generation.

 CELL| Volume [angstrom^3]:                                         27000.000000
 CELL| Vector a [angstrom]:      30.000     0.000     0.000   |a| =    30.000000
 CELL| Vector b [angstrom]:       0.000    30.000     0.000   |b| =    30.000000
 CELL| Vector c [angstrom]:       0.000     0.000    30.000   |c| =    30.000000
 CELL| Angle (b,c), alpha [degree]:                                    90.000000
 CELL| Angle (a,c), beta  [degree]:                                    90.000000
 CELL| Angle (a,b), gamma [degree]:                                    90.000000
 CELL| Numerically orthorhombic:                                             YES
 CELL| Periodicity                                                          NONE

 CELL_REF| Volume [angstrom^3]:                                     27000.000000
 CELL_REF| Vector a [angstrom    30.000     0.000     0.000   |a| =    30.000000
 CELL_REF| Vector b [angstrom     0.000    30.000     0.000   |b| =    30.000000
 CELL_REF| Vector c [angstrom     0.000     0.000    30.000   |c| =    30.000000
 CELL_REF| Angle (b,c), alpha [degree]:                                90.000000
 CELL_REF| Angle (a,c), beta  [degree]:                                90.000000
 CELL_REF| Angle (a,b), gamma [degree]:                                90.000000
 CELL_REF| Numerically orthorhombic:                                         YES
 CELL_REF| Periodicity                                                      NONE

 *******************************************************************************
 *******************************************************************************
 **                                                                           **
 **     #####                         ##              ##                      **
 **    ##   ##            ##          ##              ##                      **
 **   ##     ##                       ##            ######                    **
 **   ##     ##  ##   ##  ##   #####  ##  ##   ####   ##    #####    #####    **
 **   ##     ##  ##   ##  ##  ##      ## ##   ##      ##   ##   ##  ##   ##   **
 **   ##  ## ##  ##   ##  ##  ##      ####     ###    ##   ######   ######    **
 **    ##  ###   ##   ##  ##  ##      ## ##      ##   ##   ##       ##        **
 **     #######   #####   ##   #####  ##  ##  ####    ##    #####   ##        **
 **           ##                                                    ##        **
 **                                                                           **
 **                                                ... make the atoms dance   **
 **                                                                           **
 **            Copyright (C) by CP2K developers group (2000-2025)             **
 **                      J. Chem. Phys. 152, 194103 (2020)                    **
 **                                                                           **
 *******************************************************************************

 DFT| Spin restricted Kohn-Sham (RKS) calculation                            RKS
 DFT| Multiplicity                                                             1
 DFT| Number of spin states                                                    1
 DFT| Charge                                                                   0
 DFT| Self-interaction correction (SIC)                                       NO
 DFT| Cutoffs: density                                              1.000000E-10
 DFT|          gradient                                             1.000000E-10
 DFT|          tau                                                  1.000000E-10
 DFT|          cutoff_smoothing_range                               0.000000E+00
 DFT| XC density smoothing                                                  NONE
 DFT| XC derivatives                                                          PW

 FUNCTIONAL| PBE:
 FUNCTIONAL| J.P.Perdew, K.Burke, M.Ernzerhof, Phys. Rev. Letter, vol. 77, n 18,
 FUNCTIONAL|  pp. 3865-3868, (1996)sx=0.750sc=1.000{spin unpolarized}           


 QS| Method:                                                                GAPW
 QS| Density plane wave grid type                        NON-SPHERICAL FULLSPACE
 QS| Number of grid levels:                                                    4
 QS| Density cutoff [a.u.]:                                                250.0
 QS| Multi grid cutoff [a.u.]: 1) grid level                               250.0
 QS|                           2) grid level                                83.3
 QS|                           3) grid level                                27.8
 QS|                           4) grid level                                 9.3
 QS| Grid level progression factor:                                          3.0
 QS| Relative density cutoff [a.u.]:                                        50.0
 QS| Interaction thresholds: eps_pgf_orb:                                1.0E-12
 QS|                         eps_filter_matrix:                          0.0E+00
 QS|                         eps_core_charge:                            1.0E-14
 QS|                         eps_rho_gspace:                             1.0E-12
 QS|                         eps_rho_rspace:                             1.0E-12
 QS|                         eps_gvg_rspace:                             1.0E-06
 QS|                         eps_ppl:                                    1.0E-02
 QS|                         eps_ppnl:                                   1.0E-08
 QS| GAPW|      One center basis from orbital basis primitives
 QS| GAPW|                   eps_fit:                                    1.0E-04
 QS| GAPW|                   eps_iso:                                    1.0E-12
 QS| GAPW|                   eps_svd:                                    1.0E-08
 QS| GAPW|                   eps_cpc:                                    1.0E-12
 QS| GAPW|   atom-r-grid: quadrature:                                     GC_LOG
 QS| GAPW|      atom-s-grid:  max l :                                          6
 QS| GAPW|      max_l_rho0 :                                                   2


 ATOMIC KIND INFORMATION

  1. Atomic kind: N                                     Number of atoms:       1

     Orbital Basis Set                                        aug-DZVP-MOLOPT-ae

       Number of orbital shell sets:                                           2
       Number of orbital shells:                                              10
       Number of primitive Cartesian functions:                               12
       Number of Cartesian basis functions:                                   35
       Number of spherical basis functions:                                   30
       Norm type:                                                              2

       Normalised Cartesian orbitals:

                        Set   Shell   Orbital            Exponent    Coefficient

                          1       1    2s                0.060000      -0.096639
                                                         0.166384       0.037538
                                                         0.634073      -0.055669
                                                         2.325354       0.000000
                                                        12.268174       0.000000

                          1       2    3px               0.060000       0.000000
                                                         0.166384      -0.031930
                                                         0.634073      -0.492962
                                                         2.325354      -1.380142
                                                        12.268174      -2.349358
                          1       2    3py               0.060000       0.000000
                                                         0.166384      -0.031930
                                                         0.634073      -0.492962
                                                         2.325354      -1.380142
                                                        12.268174      -2.349358
                          1       2    3pz               0.060000       0.000000
                                                         0.166384      -0.031930
                                                         0.634073      -0.492962
                                                         2.325354      -1.380142
                                                        12.268174      -2.349358

                          1       3    4px               0.060000       0.000000
                                                         0.166384       0.169694
                                                         0.634073      -0.220766
                                                         2.325354      -0.809234
                                                        12.268174      -0.998521
                          1       3    4py               0.060000       0.000000
                                                         0.166384       0.169694
                                                         0.634073      -0.220766
                                                         2.325354      -0.809234
                                                        12.268174      -0.998521
                          1       3    4pz               0.060000       0.000000
                                                         0.166384       0.169694
                                                         0.634073      -0.220766
                                                         2.325354      -0.809234
                                                        12.268174      -0.998521

                          1       4    5px               0.060000       0.028594
                                                         0.166384       0.063224
                                                         0.634073      -0.046183
                                                         2.325354       0.000000
                                                        12.268174       0.000000
                          1       4    5py               0.060000       0.028594
                                                         0.166384       0.063224
                                                         0.634073      -0.046183
                                                         2.325354       0.000000
                                                        12.268174       0.000000
                          1       4    5pz               0.060000       0.028594
                                                         0.166384       0.063224
                                                         0.634073      -0.046183
                                                         2.325354       0.000000
                                                        12.268174       0.000000

                          1       5    4dx2              0.060000       0.000000
                                                         0.166384       0.019402
                                                         0.634073       0.555487
                                                         2.325354       1.255926
                                                        12.268174      -0.426175
                          1       5    4dxy              0.060000       0.000000
                                                         0.166384       0.033606
                                                         0.634073       0.962132
                                                         2.325354       2.175327
                                                        12.268174      -0.738157
                          1       5    4dxz              0.060000       0.000000
                                                         0.166384       0.033606
                                                         0.634073       0.962132
                                                         2.325354       2.175327
                                                        12.268174      -0.738157
                          1       5    4dy2              0.060000       0.000000
                                                         0.166384       0.019402
                                                         0.634073       0.555487
                                                         2.325354       1.255926
                                                        12.268174      -0.426175
                          1       5    4dyz              0.060000       0.000000
                                                         0.166384       0.033606
                                                         0.634073       0.962132
                                                         2.325354       2.175327
                                                        12.268174      -0.738157
                          1       5    4dz2              0.060000       0.000000
                                                         0.166384       0.019402
                                                         0.634073       0.555487
                                                         2.325354       1.255926
                                                        12.268174      -0.426175

                          1       6    5dx2              0.060000      -0.008089
                                                         0.166384      -0.027907
                                                         0.634073      -0.057221
                                                         2.325354       0.000000
                                                        12.268174       0.000000
                          1       6    5dxy              0.060000      -0.014011
                                                         0.166384      -0.048336
                                                         0.634073      -0.099109
                                                         2.325354       0.000000
                                                        12.268174       0.000000
                          1       6    5dxz              0.060000      -0.014011
                                                         0.166384      -0.048336
                                                         0.634073      -0.099109
                                                         2.325354       0.000000
                                                        12.268174       0.000000
                          1       6    5dy2              0.060000      -0.008089
                                                         0.166384      -0.027907
                                                         0.634073      -0.057221
                                                         2.325354       0.000000
                                                        12.268174       0.000000
                          1       6    5dyz              0.060000      -0.014011
                                                         0.166384      -0.048336
                                                         0.634073      -0.099109
                                                         2.325354       0.000000
                                                        12.268174       0.000000
                          1       6    5dz2              0.060000      -0.008089
                                                         0.166384      -0.027907
                                                         0.634073      -0.057221
                                                         2.325354       0.000000
                                                        12.268174       0.000000

                          1       7    5fx3              0.060000       0.000067
                                                         0.166384       0.012645
                                                         0.634073       0.328269
                                                         2.325354       1.687172
                                                        12.268174       0.000000
                          1       7    5fx2y             0.060000       0.000150
                                                         0.166384       0.028275
                                                         0.634073       0.734031
                                                         2.325354       3.772631
                                                        12.268174       0.000000
                          1       7    5fx2z             0.060000       0.000150
                                                         0.166384       0.028275
                                                         0.634073       0.734031
                                                         2.325354       3.772631
                                                        12.268174       0.000000
                          1       7    5fxy2             0.060000       0.000150
                                                         0.166384       0.028275
                                                         0.634073       0.734031
                                                         2.325354       3.772631
                                                        12.268174       0.000000
                          1       7    5fxyz             0.060000       0.000260
                                                         0.166384       0.048973
                                                         0.634073       1.271379
                                                         2.325354       6.534389
                                                        12.268174       0.000000
                          1       7    5fxz2             0.060000       0.000150
                                                         0.166384       0.028275
                                                         0.634073       0.734031
                                                         2.325354       3.772631
                                                        12.268174       0.000000
                          1       7    5fy3              0.060000       0.000067
                                                         0.166384       0.012645
                                                         0.634073       0.328269
                                                         2.325354       1.687172
                                                        12.268174       0.000000
                          1       7    5fy2z             0.060000       0.000150
                                                         0.166384       0.028275
                                                         0.634073       0.734031
                                                         2.325354       3.772631
                                                        12.268174       0.000000
                          1       7    5fyz2             0.060000       0.000150
                                                         0.166384       0.028275
                                                         0.634073       0.734031
                                                         2.325354       3.772631
                                                        12.268174       0.000000
                          1       7    5fz3              0.060000       0.000067
                                                         0.166384       0.012645
                                                         0.634073       0.328269
                                                         2.325354       1.687172
                                                        12.268174       0.000000

                          2       1    1s                0.191012      -0.002582
                                                         0.666629       0.012902
                                                         4.403487      -0.858326
                                                        14.651380      -2.749170
                                                        57.692026      -2.958222
                                                       257.997554      -1.897300
                                                      1713.054433      -1.166486

                          2       2    2s                0.191012       0.079194
                                                         0.666629       0.351708
                                                         4.403487       0.009155
                                                        14.651380       0.000424
                                                        57.692026       0.772862
                                                       257.997554      -0.458166
                                                      1713.054433       0.520658

                          2       3    3s                0.191012       0.300064
                                                         0.666629      -0.436823
                                                         4.403487      -0.072962
                                                        14.651380      -0.095292
                                                        57.692026      -1.262420
                                                       257.997554       0.741400
                                                      1713.054433      -0.270364

     RI Auxiliary Basis Set             RI_aug-DZVP-MOLOPT-ae_N_RI_039_s_p_d_f_g

       Number of orbital shell sets:                                          11
       Number of orbital shells:                                              11
       Number of primitive Cartesian functions:                               11
       Number of Cartesian basis functions:                                   50
       Number of spherical basis functions:                                   39
       Norm type:                                                              2

       Normalised Cartesian orbitals:

                        Set   Shell   Orbital            Exponent    Coefficient

                          1       1    1s                0.362292       0.332816

                          2       1    5px               0.627072       0.795403
                          2       1    5py               0.627072       0.795403
                          2       1    5pz               0.627072       0.795403

                          3       1    8dx2              0.761042       1.020644
                          3       1    8dxy              0.761042       1.767807
                          3       1    8dxz              0.761042       1.767807
                          3       1    8dy2              0.761042       1.020644
                          3       1    8dyz              0.761042       1.767807
                          3       1    8dz2              0.761042       1.020644

                          4       1   10fx3              1.083799       1.764368
                          4       1   10fx2y             1.083799       3.945247
                          4       1   10fx2z             1.083799       3.945247
                          4       1   10fxy2             1.083799       3.945247
                          4       1   10fxyz             1.083799       6.833368
                          4       1   10fxz2             1.083799       3.945247
                          4       1   10fy3              1.083799       1.764368
                          4       1   10fy2z             1.083799       3.945247
                          4       1   10fyz2             1.083799       3.945247
                          4       1   10fz3              1.083799       1.764368

                          5       1    6px               1.259239       1.901408
                          5       1    6py               1.259239       1.901408
                          5       1    6pz               1.259239       1.901408

                          6       1   11gx4              1.291057       2.246649
                          6       1   11gx3y             1.291057       5.944074
                          6       1   11gx3z             1.291057       5.944074
                          6       1   11gx2y2            1.291057       7.673766
                          6       1   11gx2yz            1.291057      13.291353
                          6       1   11gx2z2            1.291057       7.673766
                          6       1   11gxy3             1.291057       5.944074
                          6       1   11gxy2z            1.291057      13.291353
                          6       1   11gxyz2            1.291057      13.291353
                          6       1   11gxz3             1.291057       5.944074
                          6       1   11gy4              1.291057       2.246649
                          6       1   11gy3z             1.291057       5.944074
                          6       1   11gy2z2            1.291057       7.673766
                          6       1   11gyz3             1.291057       5.944074
                          6       1   11gz4              1.291057       2.246649

                          7       1    2s                1.635496       1.030736

                          8       1    9dx2              3.465946      14.490975
                          8       1    9dxy              3.465946      25.099104
                          8       1    9dxz              3.465946      25.099104
                          8       1    9dy2              3.465946      14.490975
                          8       1    9dyz              3.465946      25.099104
                          8       1    9dz2              3.465946      14.490975

                          9       1    3s               12.763940       4.812809

                         10       1    7px              13.735323      37.691089
                         10       1    7py              13.735323      37.691089
                         10       1    7pz              13.735323      37.691089

                         11       1    4s              110.054394      24.216737

       Atomic covalent radius [Angstrom]:                                  0.750

       Atomic van der Waals radius [Angstrom]:                             1.550

     The atoms of this atomic kind are PAW atoms (GAPW):
       Hard Gaussian function radius:                                      1.512
       Rho0 radius:                                                        1.512
       Maximum GTO radius used for PAW projector construction:            24.566

     GAPW Soft Basis Set                                 aug-DZVP-MOLOPT-ae_soft

       Number of orbital shell sets:                                           2
       Number of orbital shells:                                              10
       Number of primitive Cartesian functions:                                6
       Number of Cartesian basis functions:                                   35
       Number of spherical basis functions:                                   30
       Norm type:                                                              2

       Normalised Cartesian orbitals:

                        Set   Shell   Orbital            Exponent    Coefficient

                          1       1    2s                0.060000      -0.096639
                                                         0.166384       0.037538
                                                         0.634073      -0.055669
                                                         2.325354       0.000000

                          1       2    3px               0.060000       0.000000
                                                         0.166384      -0.031930
                                                         0.634073      -0.492962
                                                         2.325354      -1.380142
                          1       2    3py               0.060000       0.000000
                                                         0.166384      -0.031930
                                                         0.634073      -0.492962
                                                         2.325354      -1.380142
                          1       2    3pz               0.060000       0.000000
                                                         0.166384      -0.031930
                                                         0.634073      -0.492962
                                                         2.325354      -1.380142

                          1       3    4px               0.060000       0.000000
                                                         0.166384       0.169694
                                                         0.634073      -0.220766
                                                         2.325354      -0.809234
                          1       3    4py               0.060000       0.000000
                                                         0.166384       0.169694
                                                         0.634073      -0.220766
                                                         2.325354      -0.809234
                          1       3    4pz               0.060000       0.000000
                                                         0.166384       0.169694
                                                         0.634073      -0.220766
                                                         2.325354      -0.809234

                          1       4    5px               0.060000       0.028594
                                                         0.166384       0.063224
                                                         0.634073      -0.046183
                                                         2.325354       0.000000
                          1       4    5py               0.060000       0.028594
                                                         0.166384       0.063224
                                                         0.634073      -0.046183
                                                         2.325354       0.000000
                          1       4    5pz               0.060000       0.028594
                                                         0.166384       0.063224
                                                         0.634073      -0.046183
                                                         2.325354       0.000000

                          1       5    4dx2              0.060000       0.000000
                                                         0.166384       0.019402
                                                         0.634073       0.555487
                                                         2.325354       1.255926
                          1       5    4dxy              0.060000       0.000000
                                                         0.166384       0.033606
                                                         0.634073       0.962132
                                                         2.325354       2.175327
                          1       5    4dxz              0.060000       0.000000
                                                         0.166384       0.033606
                                                         0.634073       0.962132
                                                         2.325354       2.175327
                          1       5    4dy2              0.060000       0.000000
                                                         0.166384       0.019402
                                                         0.634073       0.555487
                                                         2.325354       1.255926
                          1       5    4dyz              0.060000       0.000000
                                                         0.166384       0.033606
                                                         0.634073       0.962132
                                                         2.325354       2.175327
                          1       5    4dz2              0.060000       0.000000
                                                         0.166384       0.019402
                                                         0.634073       0.555487
                                                         2.325354       1.255926

                          1       6    5dx2              0.060000      -0.008089
                                                         0.166384      -0.027907
                                                         0.634073      -0.057221
                                                         2.325354       0.000000
                          1       6    5dxy              0.060000      -0.014011
                                                         0.166384      -0.048336
                                                         0.634073      -0.099109
                                                         2.325354       0.000000
                          1       6    5dxz              0.060000      -0.014011
                                                         0.166384      -0.048336
                                                         0.634073      -0.099109
                                                         2.325354       0.000000
                          1       6    5dy2              0.060000      -0.008089
                                                         0.166384      -0.027907
                                                         0.634073      -0.057221
                                                         2.325354       0.000000
                          1       6    5dyz              0.060000      -0.014011
                                                         0.166384      -0.048336
                                                         0.634073      -0.099109
                                                         2.325354       0.000000
                          1       6    5dz2              0.060000      -0.008089
                                                         0.166384      -0.027907
                                                         0.634073      -0.057221
                                                         2.325354       0.000000

                          1       7    5fx3              0.060000       0.000067
                                                         0.166384       0.012645
                                                         0.634073       0.328269
                                                         2.325354       1.687172
                          1       7    5fx2y             0.060000       0.000150
                                                         0.166384       0.028275
                                                         0.634073       0.734031
                                                         2.325354       3.772631
                          1       7    5fx2z             0.060000       0.000150
                                                         0.166384       0.028275
                                                         0.634073       0.734031
                                                         2.325354       3.772631
                          1       7    5fxy2             0.060000       0.000150
                                                         0.166384       0.028275
                                                         0.634073       0.734031
                                                         2.325354       3.772631
                          1       7    5fxyz             0.060000       0.000260
                                                         0.166384       0.048973
                                                         0.634073       1.271379
                                                         2.325354       6.534389
                          1       7    5fxz2             0.060000       0.000150
                                                         0.166384       0.028275
                                                         0.634073       0.734031
                                                         2.325354       3.772631
                          1       7    5fy3              0.060000       0.000067
                                                         0.166384       0.012645
                                                         0.634073       0.328269
                                                         2.325354       1.687172
                          1       7    5fy2z             0.060000       0.000150
                                                         0.166384       0.028275
                                                         0.634073       0.734031
                                                         2.325354       3.772631
                          1       7    5fyz2             0.060000       0.000150
                                                         0.166384       0.028275
                                                         0.634073       0.734031
                                                         2.325354       3.772631
                          1       7    5fz3              0.060000       0.000067
                                                         0.166384       0.012645
                                                         0.634073       0.328269
                                                         2.325354       1.687172

                          2       1    1s                0.191012      -0.002582
                                                         0.666629       0.012902

                          2       2    2s                0.191012       0.079194
                                                         0.666629       0.351708

                          2       3    3s                0.191012       0.300064
                                                         0.666629      -0.436823

     AE Potential information for                                            ALL

       Description:                                       All-electron potential
                                          Krack, Parrinello, PCCP 2, 2105 (2000)

       Gaussian exponent of the core charge distribution:               5.979100
       Electronic configuration (s p d ...):                           4   3   0

  2. Atomic kind: H                                     Number of atoms:       1

     Orbital Basis Set                                        aug-DZVP-MOLOPT-ae

       Number of orbital shell sets:                                           1
       Number of orbital shells:                                               5
       Number of primitive Cartesian functions:                                5
       Number of Cartesian basis functions:                                    9
       Number of spherical basis functions:                                    9
       Norm type:                                                              2

       Normalised Cartesian orbitals:

                        Set   Shell   Orbital            Exponent    Coefficient

                          1       1    2s                0.035000       0.000000
                                                         0.111920       0.009149
                                                         0.374948       0.205449
                                                         1.446686       0.373852
                                                        12.248855       0.310040

                          1       2    3s                0.035000       0.000000
                                                         0.111920       0.143650
                                                         0.374948       0.007287
                                                         1.446686      -0.188851
                                                        12.248855      -0.144753

                          1       3    4s                0.035000       0.090463
                                                         0.111920      -0.203934
                                                         0.374948      -0.000376
                                                         1.446686      -0.000051
                                                        12.248855       0.000000

                          1       4    3px               0.035000       0.000000
                                                         0.111920       0.007225
                                                         0.374948       0.280770
                                                         1.446686       0.896497
                                                        12.248855      -0.764411
                          1       4    3py               0.035000       0.000000
                                                         0.111920       0.007225
                                                         0.374948       0.280770
                                                         1.446686       0.896497
                                                        12.248855      -0.764411
                          1       4    3pz               0.035000       0.000000
                                                         0.111920       0.007225
                                                         0.374948       0.280770
                                                         1.446686       0.896497
                                                        12.248855      -0.764411

                          1       5    4px               0.035000       0.011331
                                                         0.111920       0.048737
                                                         0.374948       0.028490
                                                         1.446686       0.035587
                                                        12.248855       0.000000
                          1       5    4py               0.035000       0.011331
                                                         0.111920       0.048737
                                                         0.374948       0.028490
                                                         1.446686       0.035587
                                                        12.248855       0.000000
                          1       5    4pz               0.035000       0.011331
                                                         0.111920       0.048737
                                                         0.374948       0.028490
                                                         1.446686       0.035587
                                                        12.248855       0.000000

     RI Auxiliary Basis Set             RI_aug-DZVP-MOLOPT-ae_N_RI_009_s_p_d_f_g

       Number of orbital shell sets:                                           5
       Number of orbital shells:                                               5
       Number of primitive Cartesian functions:                                5
       Number of Cartesian basis functions:                                    9
       Number of spherical basis functions:                                    9
       Norm type:                                                              2

       Normalised Cartesian orbitals:

                        Set   Shell   Orbital            Exponent    Coefficient

                          1       1    4px               0.330315       0.356944
                          1       1    4py               0.330315       0.356944
                          1       1    4pz               0.330315       0.356944

                          2       1    1s                0.373568       0.340555

                          3       1    2s                0.886477       0.651119

                          4       1    5px               1.451319       2.270616
                          4       1    5py               1.451319       2.270616
                          4       1    5pz               1.451319       2.270616

                          5       1    3s                5.028848       2.393379

       Atomic covalent radius [Angstrom]:                                  0.320

       Atomic van der Waals radius [Angstrom]:                             1.090

     The atoms of this atomic kind are PAW atoms (GAPW):
       Hard Gaussian function radius:                                      1.200
       Rho0 radius:                                                        1.200
       Maximum GTO radius used for PAW projector construction:            24.566

     GAPW Soft Basis Set                                 aug-DZVP-MOLOPT-ae_soft

       Number of orbital shell sets:                                           1
       Number of orbital shells:                                               5
       Number of primitive Cartesian functions:                                4
       Number of Cartesian basis functions:                                    9
       Number of spherical basis functions:                                    9
       Norm type:                                                              2

       Normalised Cartesian orbitals:

                        Set   Shell   Orbital            Exponent    Coefficient

                          1       1    2s                0.035000       0.000000
                                                         0.111920       0.009149
                                                         0.374948       0.205449
                                                         1.446686       0.373852

                          1       2    3s                0.035000       0.000000
                                                         0.111920       0.143650
                                                         0.374948       0.007287
                                                         1.446686      -0.188851

                          1       3    4s                0.035000       0.090463
                                                         0.111920      -0.203934
                                                         0.374948      -0.000376
                                                         1.446686      -0.000051

                          1       4    3px               0.035000       0.000000
                                                         0.111920       0.007225
                                                         0.374948       0.280770
                                                         1.446686       0.896497
                          1       4    3py               0.035000       0.000000
                                                         0.111920       0.007225
                                                         0.374948       0.280770
                                                         1.446686       0.896497
                          1       4    3pz               0.035000       0.000000
                                                         0.111920       0.007225
                                                         0.374948       0.280770
                                                         1.446686       0.896497

                          1       5    4px               0.035000       0.011331
                                                         0.111920       0.048737
                                                         0.374948       0.028490
                                                         1.446686       0.035587
                          1       5    4py               0.035000       0.011331
                                                         0.111920       0.048737
                                                         0.374948       0.028490
                                                         1.446686       0.035587
                          1       5    4pz               0.035000       0.011331
                                                         0.111920       0.048737
                                                         0.374948       0.028490
                                                         1.446686       0.035587

     AE Potential information for                                            ALL

       Description:                                       All-electron potential
                                          Krack, Parrinello, PCCP 2, 2105 (2000)

       Gaussian exponent of the core charge distribution:              12.500000
       Electronic configuration (s p d ...):                           1   0   0


 MOLECULE KIND INFORMATION


 All atoms are their own molecule, skipping detailed information


 TOTAL NUMBERS AND MAXIMUM NUMBERS

  Total number of            - Atomic kinds:                                   2
                             - Atoms:                                          2
                             - Shell sets:                                     3
                             - Shells:                                        15
                             - Primitive Cartesian functions:                 17
                             - Cartesian basis functions:                     44
                             - Spherical basis functions:                     39

  Maximum angular momentum of the orbital basis functions:                     3


 MODULE QUICKSTEP: ATOMIC COORDINATES IN ANGSTROM

   Atom Kind Element         X             Y             Z       Z(eff)     Mass
      1    1 N     7     15.518596     15.000000     15.000000   7.0000  14.0067
      2    2 H     1     14.481404     15.000000     15.000000   1.0000   1.0079



 SCF PARAMETERS         Density guess:                                    ATOMIC
                        --------------------------------------------------------
                        max_scf:                                             500
                        max_scf_history:                                       0
                        max_diis:                                              4
                        --------------------------------------------------------
                        eps_scf:                                        1.00E-06
                        eps_scf_history:                                0.00E+00
                        eps_diis:                                       1.00E-01
                        eps_eigval:                                     1.00E-05
                        --------------------------------------------------------
                        level_shift [a.u.]:                             0.000000
                        added MOs                                        35    0
                        --------------------------------------------------------
                        Mixing method:                            BROYDEN_MIXING
                                                charge density mixing in g-space
                        --------------------------------------------------------
                        No outer SCF

 PW_GRID| Information for grid number                                          1
 PW_GRID| Grid distributed over                                    24 processors
 PW_GRID| Real space group dimensions                                    24    1
 PW_GRID| the grid is blocked:                                                NO
 PW_GRID| Cutoff [a.u.]                                                    250.0
 PW_GRID| spherical cutoff:                                                   NO
 PW_GRID|   Bounds   1           -202     202                Points:         405
 PW_GRID|   Bounds   2           -202     202                Points:         405
 PW_GRID|   Bounds   3           -202     202                Points:         405
 PW_GRID| Volume element (a.u.^3)  0.2743E-02     Volume (a.u.^3)    182205.0337
 PW_GRID| Grid span                                                    FULLSPACE
 PW_GRID|   Distribution                         Average         Max         Min
 PW_GRID|   G-Vectors                          2767921.9     2768175     2767770
 PW_GRID|   G-Rays                                6834.4        6835        6834
 PW_GRID|   Real Space Points                  2767921.9     2788425     2624400

 PW_GRID| Information for grid number                                          2
 PW_GRID| Number of the reference grid                                         1
 PW_GRID| Grid distributed over                                    24 processors
 PW_GRID| Real space group dimensions                                    24    1
 PW_GRID| the grid is blocked:                                                NO
 PW_GRID| Cutoff [a.u.]                                                     83.3
 PW_GRID| spherical cutoff:                                                   NO
 PW_GRID|   Bounds   1           -120     119                Points:         240
 PW_GRID|   Bounds   2           -120     119                Points:         240
 PW_GRID|   Bounds   3           -120     119                Points:         240
 PW_GRID| Volume element (a.u.^3)  0.1318E-01     Volume (a.u.^3)    182205.0337
 PW_GRID| Grid span                                                    FULLSPACE
 PW_GRID|   Distribution                         Average         Max         Min
 PW_GRID|   G-Vectors                           576000.0      576240      575760
 PW_GRID|   G-Rays                                2400.0        2401        2399
 PW_GRID|   Real Space Points                   576000.0      576000      576000

 PW_GRID| Information for grid number                                          3
 PW_GRID| Number of the reference grid                                         1
 PW_GRID| Grid distributed over                                    24 processors
 PW_GRID| Real space group dimensions                                    24    1
 PW_GRID| the grid is blocked:                                                NO
 PW_GRID| Cutoff [a.u.]                                                     27.8
 PW_GRID| spherical cutoff:                                                   NO
 PW_GRID|   Bounds   1            -67      67                Points:         135
 PW_GRID|   Bounds   2            -67      67                Points:         135
 PW_GRID|   Bounds   3            -67      67                Points:         135
 PW_GRID| Volume element (a.u.^3)  0.7406E-01     Volume (a.u.^3)    182205.0337
 PW_GRID| Grid span                                                    FULLSPACE
 PW_GRID|   Distribution                         Average         Max         Min
 PW_GRID|   G-Vectors                           102515.6      102735      102330
 PW_GRID|   G-Rays                                 759.4         761         758
 PW_GRID|   Real Space Points                   102515.6      109350       91125

 PW_GRID| Information for grid number                                          4
 PW_GRID| Number of the reference grid                                         1
 PW_GRID| Grid distributed over                                    24 processors
 PW_GRID| Real space group dimensions                                    24    1
 PW_GRID| the grid is blocked:                                                NO
 PW_GRID| Cutoff [a.u.]                                                      9.3
 PW_GRID| spherical cutoff:                                                   NO
 PW_GRID|   Bounds   1            -40      39                Points:          80
 PW_GRID|   Bounds   2            -40      39                Points:          80
 PW_GRID|   Bounds   3            -40      39                Points:          80
 PW_GRID| Volume element (a.u.^3)  0.3559         Volume (a.u.^3)    182205.0337
 PW_GRID| Grid span                                                    FULLSPACE
 PW_GRID|   Distribution                         Average         Max         Min
 PW_GRID|   G-Vectors                            21333.3       21360       21280
 PW_GRID|   G-Rays                                 266.7         267         266
 PW_GRID|   Real Space Points                    21333.3       25600       19200

 POISSON| Solver                                                         WAVELET
 POISSON| Wavelet| Scaling function                                           40
 POISSON| Periodicity                                                       NONE

 RS_GRID| Information for grid number                                          1
 RS_GRID|   Bounds   1           -202     202                Points:         405
 RS_GRID|   Bounds   2           -202     202                Points:         405
 RS_GRID|   Bounds   3           -202     202                Points:         405
 RS_GRID| Real space distribution over                                  4 groups
 RS_GRID| Real space distribution along direction                              2
 RS_GRID| Border size                                                         32
 RS_GRID| Real space distribution over                                  6 groups
 RS_GRID| Real space distribution along direction                              3
 RS_GRID| Border size                                                         32
 RS_GRID|   Distribution                         Average         Max         Min
 RS_GRID|   Planes                                 165.2         166         165
 RS_GRID|   Distribution                         Average         Max         Min
 RS_GRID|   Planes                                 131.5         132         131

 RS_GRID| Information for grid number                                          2
 RS_GRID|   Bounds   1           -120     119                Points:         240
 RS_GRID|   Bounds   2           -120     119                Points:         240
 RS_GRID|   Bounds   3           -120     119                Points:         240
 RS_GRID| Real space distribution over                                  4 groups
 RS_GRID| Real space distribution along direction                              2
 RS_GRID| Border size                                                         35
 RS_GRID| Real space distribution over                                  6 groups
 RS_GRID| Real space distribution along direction                              3
 RS_GRID| Border size                                                         35
 RS_GRID|   Distribution                         Average         Max         Min
 RS_GRID|   Planes                                 130.0         130         130
 RS_GRID|   Distribution                         Average         Max         Min
 RS_GRID|   Planes                                 110.0         110         110

 RS_GRID| Information for grid number                                          3
 RS_GRID|   Bounds   1            -67      67                Points:         135
 RS_GRID|   Bounds   2            -67      67                Points:         135
 RS_GRID|   Bounds   3            -67      67                Points:         135
 RS_GRID| Real space fully replicated
 RS_GRID| Group size                                                           1

 RS_GRID| Information for grid number                                          4
 RS_GRID|   Bounds   1            -40      39                Points:          80
 RS_GRID|   Bounds   2            -40      39                Points:          80
 RS_GRID|   Bounds   3            -40      39                Points:          80
 RS_GRID| Real space fully replicated
 RS_GRID| Group size                                                           1

  HFX_INFO| Replica ID:                                                        1
  HFX_INFO| FRACTION:                                               0.2500000000
  HFX_INFO| Interaction Potential:                                       COULOMB
  HFX_INFO| EPS_SCHWARZ:                                                 1.0E-10
  HFX_INFO| EPS_SCHWARZ_FORCES                                           1.0E-08
  HFX_INFO| EPS_STORAGE_SCALING:                                         1.0E+00
  HFX_INFO| NBINS:                                                            64
  HFX_INFO| BLOCK_SIZE:                                                        1
  HFX_INFO| Number of periodic shells considered:                           NONE
  HFX_INFO| Number of periodic cells considered:                            NONE

 
 RI-RPA| using GPW style
 

 OVERLAP MATRIX CONDITION NUMBER
 1-Norm Condition Number (Estimate)
   CN : |A|*|A^-1|:  5.978E+000 *  8.186E+002   = 4.894E+003  Log(1-CN):  3.6896
 1-Norm and 2-Norm Condition Numbers using Diagonalization
   CN : |A|*|A^-1|:  5.978E+000 *  8.186E+002   = 4.894E+003  Log(1-CN):  3.6896
   CN : max/min ev:  3.805E+000 /  2.394E-003   = 1.589E+003  Log(2-CN):  3.2012

 Number of electrons:                                                          8
 Number of occupied orbitals:                                                  4
 Number of molecular orbitals:                                                39

 Number of orbital functions:                                                 39
 Number of independent orbital functions:                                     39

 Extrapolation method: initial_guess

 Atomic guess: The first density matrix is obtained in terms of atomic orbitals
               and electronic configurations assigned to each atomic kind

 Guess for atomic kind: N

 Electronic structure
    Total number of core electrons                                          0.00
    Total number of valence electrons                                       7.00
    Total number of electrons                                               7.00
    Multiplicity                                                   not specified
    S      2.00  2.00
    P      3.00


 *******************************************************************************
                  Iteration          Convergence                     Energy [au]
 *******************************************************************************
                          1        0.369390                     -53.855844969821
                          2        0.273078                     -53.870170065147
                          3        0.611788E-02                 -53.916370559561
                          4        0.258022E-03                 -53.916388709621
                          5        0.100264E-04                 -53.916388753242
                          6        0.664220E-07                 -53.916388753301

 Energy components [Hartree]           Total Energy ::          -53.916388753301
                                        Band Energy ::          -30.277671893433
                                     Kinetic Energy ::           53.943449639882
                                   Potential Energy ::         -107.859838393183
                                      Virial (-V/T) ::            1.999498347125
                                        Core Energy ::          -73.381511064535
                                          XC Energy ::           -6.114835262346
                                     Coulomb Energy ::           25.579957573581

 Orbital energies  State     L     Occupation   Energy[a.u.]          Energy[eV]

                       1     0          2.000     -14.050793         -382.341534
                       2     0          2.000      -0.664480          -18.081407

                       1     1          3.000      -0.282375           -7.683823


 Total Electron Density at R=0:                                       189.469012

 Guess for atomic kind: H

 Electronic structure
    Total number of core electrons                                          0.00
    Total number of valence electrons                                       1.00
    Total number of electrons                                               1.00
    Multiplicity                                                   not specified
    S      1.00


 *******************************************************************************
                  Iteration          Convergence                     Energy [au]
 *******************************************************************************
                          1        0.100530E-01                  -0.443985550189
                          2        0.945329E-03                  -0.444090029920
                          3        0.103025E-03                  -0.444092117382
                          4        0.802727E-07                  -0.444092129626

 Energy components [Hartree]           Total Energy ::           -0.444092129626
                                        Band Energy ::           -0.233486998571
                                     Kinetic Energy ::            0.420413643923
                                   Potential Energy ::           -0.864505773549
                                      Virial (-V/T) ::            2.056321877382
                                        Core Energy ::           -0.493965249450
                                          XC Energy ::           -0.230662915809
                                     Coulomb Energy ::            0.280536035634

 Orbital energies  State     L     Occupation   Energy[a.u.]          Energy[eV]

                       1     0          1.000      -0.233487           -6.353504


 Total Electron Density at R=0:                                         0.246678
 Re-scaling the density matrix to get the right number of electrons
                  # Electrons              Trace(P)               Scaling factor
                            8                 8.000                        1.000


 SCF WAVEFUNCTION OPTIMIZATION

  Step     Update method      Time    Convergence         Total energy    Change
  ------------------------------------------------------------------------------

  HFX_MEM_INFO| Est. max. program size before HFX [MiB]:                    2128
  HFX_MEM_INFO| Number of cart. primitive ERI's calculated:            165500953
  HFX_MEM_INFO| Number of sph. ERI's calculated:                         1227231
  HFX_MEM_INFO| Number of sph. ERI's stored in-core:                     1227231
  HFX_MEM_INFO| Number of sph. ERI's stored on disk:                           0
  HFX_MEM_INFO| Number of sph. ERI's calculated on the fly:                    0
  HFX_MEM_INFO| Total memory consumption ERI's RAM [MiB]:                      6
  HFX_MEM_INFO| Whereof max-vals [MiB]:                                        1
  HFX_MEM_INFO| Total compression factor ERI's RAM:                         1.64
  HFX_MEM_INFO| Total memory consumption ERI's disk [MiB]:                     0
  HFX_MEM_INFO| Total compression factor ERI's disk:                        0.00
  HFX_MEM_INFO| Size of density/Fock matrix [MiB]:                             0
  HFX_MEM_INFO| Size of buffers [MiB]:                                        16
  HFX_MEM_INFO| Est. max. program size after HFX  [MiB]:                    2665

     1 NoMix/Diag. 0.10E+00   17.8     1.33879803       -54.9121474947 -5.49E+01
     2 Broy./Diag. 0.10E+00    4.8     0.05096122       -54.4803592541  4.32E-01
     3 Broy./Diag. 0.10E+00    4.8     0.02265675       -54.4139678621  6.64E-02
     4 Broy./Diag. 0.10E+00    4.8     0.08298938       -54.7697897992 -3.56E-01
     5 Broy./Diag. 0.10E+00    4.9     0.02078660       -55.1182712506 -3.48E-01
     6 Broy./Diag. 0.10E+00    4.9     0.01966409       -55.0599237364  5.83E-02
     7 Broy./Diag. 0.10E+00    5.0     0.01556718       -54.9306016917  1.29E-01
     8 Broy./Diag. 0.10E+00    5.1     0.00172181       -54.8689351268  6.17E-02
     9 Broy./Diag. 0.10E+00    5.3     0.02867179       -54.9520884445 -8.32E-02
    10 Broy./Diag. 0.10E+00    5.4     0.00640408       -55.0547452420 -1.03E-01
    11 Broy./Diag. 0.10E+00    5.3     0.00565197       -55.0496082432  5.14E-03
    12 Broy./Diag. 0.10E+00    5.3     0.00655463       -55.0071509446  4.25E-02
    13 Broy./Diag. 0.10E+00    5.3     0.00073466       -54.9824633078  2.47E-02
    14 Broy./Diag. 0.10E+00    5.3     0.00983078       -55.0008434878 -1.84E-02
    15 Broy./Diag. 0.10E+00    5.3     0.00300423       -55.0190485642 -1.82E-02
    16 Broy./Diag. 0.10E+00    5.3     0.00078168       -55.0123028665  6.75E-03
    17 Broy./Diag. 0.10E+00    5.3     0.00387755       -55.0072884899  5.01E-03
    18 Broy./Diag. 0.10E+00    5.3     0.00198595       -55.0042712071  3.02E-03
    19 Broy./Diag. 0.10E+00    5.4     0.00066889       -55.0044114599 -1.40E-04
    20 Broy./Diag. 0.10E+00    5.4     0.00077952       -55.0063130565 -1.90E-03
    21 Broy./Diag. 0.10E+00    5.3     0.00175812       -55.0040292527  2.28E-03
    22 Broy./Diag. 0.10E+00    5.3     0.00073485       -55.0021334613  1.90E-03
    23 Broy./Diag. 0.10E+00    5.3     0.00045271       -55.0032711807 -1.14E-03
    24 Broy./Diag. 0.10E+00    5.5     0.00026133       -55.0031390276  1.32E-04
    25 Broy./Diag. 0.10E+00    5.4     0.00028479       -55.0024332850  7.06E-04
    26 Broy./Diag. 0.10E+00    5.3     0.00018807       -55.0030592152 -6.26E-04
    27 Broy./Diag. 0.10E+00    5.3     0.00004741       -55.0035310393 -4.72E-04
    28 Broy./Diag. 0.10E+00    5.3     0.00029249       -55.0034753547  5.57E-05
    29 Broy./Diag. 0.10E+00    5.3     0.00030094       -55.0035334424 -5.81E-05
    30 Broy./Diag. 0.10E+00    5.3     0.00019248       -55.0033292607  2.04E-04
    31 Broy./Diag. 0.10E+00    5.3     0.00014892       -55.0031851022  1.44E-04
    32 Broy./Diag. 0.10E+00    5.3     0.00016397       -55.0032808821 -9.58E-05
    33 Broy./Diag. 0.10E+00    5.4     0.00020122       -55.0031001632  1.81E-04
    34 Broy./Diag. 0.10E+00    5.5     0.00012569       -55.0030491618  5.10E-05
    35 Broy./Diag. 0.10E+00    5.3     0.00005171       -55.0031520688 -1.03E-04
    36 Broy./Diag. 0.10E+00    5.3     0.00021056       -55.0030122307  1.40E-04
    37 Broy./Diag. 0.10E+00    5.3     0.00004504       -55.0029986833  1.35E-05
    38 Broy./Diag. 0.10E+00    5.3     0.00002329       -55.0030968103 -9.81E-05
    39 Broy./Diag. 0.10E+00    5.3     0.00013754       -55.0030292830  6.75E-05
    40 Broy./Diag. 0.10E+00    5.3     0.00002074       -55.0030765807 -4.73E-05
    41 Broy./Diag. 0.10E+00    5.4     0.00001632       -55.0031333244 -5.67E-05
[...]
   422 Broy./Diag. 0.10E+00    5.3     0.25378465       -54.9682381993  1.78E-02
   423 Broy./Diag. 0.10E+00    5.3     0.18176396       -54.9929117079 -2.47E-02
   424 Broy./Diag. 0.10E+00    5.4     0.02933325       -55.0594617643 -6.66E-02
   425 Broy./Diag. 0.10E+00    5.3     0.03500267       -55.1525803340 -9.31E-02
   426 Broy./Diag. 0.10E+00    5.4     0.11424787       -55.1815048384 -2.89E-02
   427 Broy./Diag. 0.10E+00    5.4     0.08658170       -55.2080693519 -2.66E-02
   428 Broy./Diag. 0.10E+00    5.3     0.03352997       -55.2296546735 -2.16E-02
   429 Broy./Diag. 0.10E+00    5.4     0.04288475       -55.2551354720 -2.55E-02
   430 Broy./Diag. 0.10E+00    5.3     0.02075984       -55.2518395046  3.30E-03
   431 Broy./Diag. 0.10E+00    5.4     0.16887671       -55.1550179838  9.68E-02
   432 Broy./Diag. 0.10E+00    5.3     0.07299777       -55.0428041379  1.12E-01
   433 Broy./Diag. 0.10E+00    5.4     0.03072535       -55.0219714299  2.08E-02
   434 Broy./Diag. 0.10E+00    5.3     0.04170628       -55.0292198900 -7.25E-03
   435 Broy./Diag. 0.10E+00    5.3     0.03031144       -55.0259677074  3.25E-03
   436 Broy./Diag. 0.10E+00    5.3     0.02430312       -55.0162934081  9.67E-03
   437 Broy./Diag. 0.10E+00    5.4     0.06310276       -55.0108658414  5.43E-03
   438 Broy./Diag. 0.10E+00    5.3     0.11399898       -55.0108425043  2.33E-05
   439 Broy./Diag. 0.10E+00    5.3     0.17431004       -55.0147003555 -3.86E-03
   440 Broy./Diag. 0.10E+00    5.4     0.24239252       -55.0114837741  3.22E-03
   441 Broy./Diag. 0.10E+00    5.4     0.31764703       -55.0077013764  3.78E-03
   442 Broy./Diag. 0.10E+00    5.3     0.28422259       -54.9955192641  1.22E-02
   443 Broy./Diag. 0.10E+00    5.3     0.21097924       -54.9728161602  2.27E-02
   444 Broy./Diag. 0.10E+00    5.4     0.20463361       -54.9528179449  2.00E-02
   445 Broy./Diag. 0.10E+00    5.3     0.17117083       -54.9380504702  1.48E-02
   446 Broy./Diag. 0.10E+00    5.3     0.11512761       -54.9288981159  9.15E-03
   447 Broy./Diag. 0.10E+00    5.3     0.09341717       -54.9209397966  7.96E-03
   448 Broy./Diag. 0.10E+00    5.3     0.10226040       -54.9198933266  1.05E-03
   449 Broy./Diag. 0.10E+00    5.4     0.15864802       -54.9195256421  3.68E-04
   450 Broy./Diag. 0.10E+00    5.3     0.15379758       -54.9297862264 -1.03E-02
   451 Broy./Diag. 0.10E+00    5.3     0.15739293       -54.9513064844 -2.15E-02
   452 Broy./Diag. 0.10E+00    5.3     0.16582600       -54.9779988171 -2.67E-02
   453 Broy./Diag. 0.10E+00    5.3     0.15495718       -54.9944405372 -1.64E-02
   454 Broy./Diag. 0.10E+00    5.3     0.12962349       -54.9964189518 -1.98E-03
   455 Broy./Diag. 0.10E+00    5.3     0.05708481       -55.0844241285 -8.80E-02

 *** WARNING in pw/ps_wavelet_methods.F:238 :: Density non-zero on the ***
 *** edges of the unit cell: wrong results in WAVELET solver           ***

   456 Broy./Diag. 0.10E+00    5.3     0.17065035       -55.0274311513  5.70E-02

 *** WARNING in pw/ps_wavelet_methods.F:238 :: Density non-zero on the ***
 *** edges of the unit cell: wrong results in WAVELET solver           ***

   457 Broy./Diag. 0.10E+00    5.5     0.12504469       -54.8886313693  1.39E-01
   458 Broy./Diag. 0.10E+00    5.3     0.05806451       -54.9154801984 -2.68E-02
   459 Broy./Diag. 0.10E+00    5.4     0.01080028       -55.0085122985 -9.30E-02
   460 Broy./Diag. 0.10E+00    5.3     0.00573396       -54.9922873843  1.62E-02
   461 Broy./Diag. 0.10E+00    5.3     0.06074733       -54.9550633757  3.72E-02
   462 Broy./Diag. 0.10E+00    5.3     0.03918030       -54.9580886898 -3.03E-03
   463 Broy./Diag. 0.10E+00    5.3     0.11149946       -54.9742352525 -1.61E-02
   464 Broy./Diag. 0.10E+00    5.4     0.09635266       -54.9949127085 -2.07E-02
   465 Broy./Diag. 0.10E+00    5.4     0.22391489       -54.9892283995  5.68E-03
   466 Broy./Diag. 0.10E+00    5.4     0.27397561       -54.9925026922 -3.27E-03
   467 Broy./Diag. 0.10E+00    5.3     0.33120801       -54.9817607530  1.07E-02
   468 Broy./Diag. 0.10E+00    5.4     0.28161526       -54.9582554263  2.35E-02
   469 Broy./Diag. 0.10E+00    5.5     0.19390292       -54.9327986274  2.55E-02
   470 Broy./Diag. 0.10E+00    5.3     0.16509498       -54.9204085661  1.24E-02
   471 Broy./Diag. 0.10E+00    5.4     0.17660889       -54.9086912649  1.17E-02
   472 Broy./Diag. 0.10E+00    5.3     0.14607026       -54.9068905457  1.80E-03
   473 Broy./Diag. 0.10E+00    5.4     0.14401255       -54.9010820334  5.81E-03
   474 Broy./Diag. 0.10E+00    5.4     0.11329712       -54.8946930985  6.39E-03
   475 Broy./Diag. 0.10E+00    5.3     0.10250261       -54.8873705471  7.32E-03
   476 Broy./Diag. 0.10E+00    5.4     0.14217902       -54.8810274534  6.34E-03
   477 Broy./Diag. 0.10E+00    5.3     0.16126517       -54.8961335919 -1.51E-02
   478 Broy./Diag. 0.10E+00    5.3     0.17002171       -54.9218557836 -2.57E-02
   479 Broy./Diag. 0.10E+00    5.4     0.14402338       -54.9498709830 -2.80E-02
   480 Broy./Diag. 0.10E+00    5.3     0.10431249       -55.0066014863 -5.67E-02
   481 Broy./Diag. 0.10E+00    5.4     0.06657742       -55.0527045312 -4.61E-02
   482 Broy./Diag. 0.10E+00    5.4     0.05969575       -55.0868316961 -3.41E-02
   483 Broy./Diag. 0.10E+00    5.3     0.01842691       -55.0929373407 -6.11E-03
   484 Broy./Diag. 0.10E+00    5.4     0.00943224       -55.0804439618  1.25E-02
   485 Broy./Diag. 0.10E+00    5.3     0.00727528       -55.0710279739  9.42E-03
   486 Broy./Diag. 0.10E+00    5.3     0.00488352       -55.0616873424  9.34E-03
   487 Broy./Diag. 0.10E+00    5.3     0.00916126       -55.0554267401  6.26E-03
   488 Broy./Diag. 0.10E+00    5.4     0.01021074       -55.0543719482  1.05E-03
   489 Broy./Diag. 0.10E+00    5.4     0.12641371       -55.0378707188  1.65E-02
   490 Broy./Diag. 0.10E+00    5.3     0.16286998       -55.0312457670  6.62E-03
   491 Broy./Diag. 0.10E+00    5.5     0.20792275       -55.0243736620  6.87E-03
   492 Broy./Diag. 0.10E+00    5.4     0.29113910       -55.0172628727  7.11E-03
   493 Broy./Diag. 0.10E+00    5.5     0.32408169       -54.9930949458  2.42E-02
   494 Broy./Diag. 0.10E+00    5.4     0.25568468       -54.9689447802  2.42E-02
   495 Broy./Diag. 0.10E+00    5.4     0.18243463       -54.9545136967  1.44E-02
   496 Broy./Diag. 0.10E+00    5.4     0.13610311       -54.9521854383  2.33E-03
   497 Broy./Diag. 0.10E+00    5.4     0.13287751       -54.9485462776  3.64E-03
   498 Broy./Diag. 0.10E+00    5.4     0.10907100       -54.9367467658  1.18E-02
   499 Broy./Diag. 0.10E+00    5.3     0.11400025       -54.9187267352  1.80E-02
   500 Broy./Diag. 0.10E+00    5.4     0.13797154       -54.8958588907  2.29E-02

  Leaving inner SCF loop after reaching   500 steps.


  Electronic density on regular grids:         -6.0766750312        1.9233249688
  Core density on regular grids:                8.0000000000       -0.0000000000
  Hard and soft densities (Lebedev):          -20.9611730215      -19.0342228586
  Total Rho_soft + Rho1_hard - Rho1_soft       -8.0036251941
  Total charge density (r-space):              -0.0036251941
  Total Rho_soft + Rho0_soft (g-space):        -0.0036251506

  Overlap energy of the core charge distribution:               0.00000008866015
  Self energy of the core charge distribution:                -49.21005070205399
  Core Hamiltonian energy:                                     -7.10716716116563
  Hartree energy:                                              17.67951472708680
  Exchange-correlation energy:                                 -2.12211648524592
  Hartree-Fock Exchange energy:                                -1.71357426458888

  GAPW| Exc from hard and soft atomic rho1:                    -3.21678103964303
  GAPW| local Eh = 1 center integrals:                         -9.20568405379360

  Total energy:                                               -54.89585889074409

 *******************************************************************************
 *   ___                                                                       *
 *  /   \                                                                      *
 * [ABORT]                                                                     *
 *  \___/     SCF run NOT converged. To continue the calculation regardless,   *
 *    |             please set the keyword IGNORE_CONVERGENCE_FAILURE.         *
 *  O/|                                                                        *
 * /| |                                                                        *
 * / \                                                            qs_scf.F:611 *
 *******************************************************************************


 ===== Routine Calling Stack ===== 

            3 scf_env_do_scf
            2 qs_energies
            1 CP2K

 *******************************************************************************
 *   ___                                                                       *
 *  /   \                                                                      *
 * [ABORT]                                                                     *
 *  \___/     SCF run NOT converged. To continue the calculation regardless,   *
 *    |             please set the keyword IGNORE_CONVERGENCE_FAILURE.         *
 *  O/|                                                                        *
 * /| |                                                                        *
 * / \                                                            qs_scf.F:611 *
 *******************************************************************************


 ===== Routine Calling Stack ===== 

            3 scf_env_do_scf
            2 qs_energies
            1 CP2K

 *******************************************************************************
 *   ___                                                                       *
 *  /   \                                                                      *
 * [ABORT]                                                                     *
 *  \___/     SCF run NOT converged. To continue the calculation regardless,   *
 *    |             please set the keyword IGNORE_CONVERGENCE_FAILURE.         *
 *  O/|                                                                        *
 * /| |                                                                        *
 * / \                                                            qs_scf.F:611 *
 *******************************************************************************


 ===== Routine Calling Stack ===== 

            3 scf_env_do_scf
            2 qs_energies
            1 CP2K

 *******************************************************************************
 *   ___                                                                       *
 *  /   \                                                                      *
 * [ABORT]                                                                     *
 *  \___/     SCF run NOT converged. To continue the calculation regardless,   *
 *    |             please set the keyword IGNORE_CONVERGENCE_FAILURE.         *
 *  O/|                                                                        *
 * /| |                                                                        *
 * / \                                                            qs_scf.F:611 *
 *******************************************************************************


 ===== Routine Calling Stack ===== 

            3 scf_env_do_scf
            2 qs_energies
            1 CP2K

 *******************************************************************************
 *   ___                                                                       *
 *  /   \                                                                      *
 * [ABORT]                                                                     *
 *  \___/     SCF run NOT converged. To continue the calculation regardless,   *
 *    |             please set the keyword IGNORE_CONVERGENCE_FAILURE.         *
 *  O/|                                                                        *
 * /| |                                                                        *
 * / \                                                            qs_scf.F:611 *
 *******************************************************************************


 ===== Routine Calling Stack ===== 

            3 scf_env_do_scf
            2 qs_energies
            1 CP2K

 *******************************************************************************
 *   ___                                                                       *
 *  /   \                                                                      *
 * [ABORT]                                                                     *
 *  \___/     SCF run NOT converged. To continue the calculation regardless,   *
 *    |             please set the keyword IGNORE_CONVERGENCE_FAILURE.         *
 *  O/|                                                                        *
 * /| |                                                                        *
 * / \                                                            qs_scf.F:611 *
 *******************************************************************************


 ===== Routine Calling Stack ===== 

            3 scf_env_do_scf
            2 qs_energies
            1 CP2K

 *******************************************************************************
 *   ___                                                                       *
 *  /   \                                                                      *
 * [ABORT]                                                                     *
 *  \___/     SCF run NOT converged. To continue the calculation regardless,   *
 *    |             please set the keyword IGNORE_CONVERGENCE_FAILURE.         *
 *  O/|                                                                        *
 * /| |                                                                        *
 * / \                                                            qs_scf.F:611 *
 *******************************************************************************


 ===== Routine Calling Stack ===== 

            3 scf_env_do_scf
            2 qs_energies
            1 CP2K

 *******************************************************************************
 *   ___                                                                       *
 *  /   \                                                                      *
 * [ABORT]                                                                     *
 *  \___/     SCF run NOT converged. To continue the calculation regardless,   *
 *    |             please set the keyword IGNORE_CONVERGENCE_FAILURE.         *
 *  O/|                                                                        *
 * /| |                                                                        *
 * / \                                                            qs_scf.F:611 *
 *******************************************************************************


 ===== Routine Calling Stack ===== 

            3 scf_env_do_scf
            2 qs_energies
            1 CP2K

 *******************************************************************************
 *   ___                                                                       *
 *  /   \                                                                      *
 * [ABORT]                                                                     *
 *  \___/     SCF run NOT converged. To continue the calculation regardless,   *
 *    |             please set the keyword IGNORE_CONVERGENCE_FAILURE.         *
 *  O/|                                                                        *
 * /| |                                                                        *
 * / \                                                            qs_scf.F:611 *
 *******************************************************************************


 ===== Routine Calling Stack ===== 

            3 scf_env_do_scf
            2 qs_energies
            1 CP2K

 *******************************************************************************
 *   ___                                                                       *
 *  /   \                                                                      *
 * [ABORT]                                                                     *
 *  \___/     SCF run NOT converged. To continue the calculation regardless,   *
 *    |             please set the keyword IGNORE_CONVERGENCE_FAILURE.         *
 *  O/|                                                                        *
 * /| |                                                                        *
 * / \                                                            qs_scf.F:611 *
 *******************************************************************************


 ===== Routine Calling Stack ===== 

            3 scf_env_do_scf
            2 qs_energies
            1 CP2K

 *******************************************************************************
 *   ___                                                                       *
 *  /   \                                                                      *
 * [ABORT]                                                                     *
 *  \___/     SCF run NOT converged. To continue the calculation regardless,   *
 *    |             please set the keyword IGNORE_CONVERGENCE_FAILURE.         *
 *  O/|                                                                        *
 * /| |                                                                        *
 * / \                                                            qs_scf.F:611 *
 *******************************************************************************


 ===== Routine Calling Stack ===== 

            3 scf_env_do_scf
            2 qs_energies
            1 CP2K

 *******************************************************************************
 *   ___                                                                       *
 *  /   \                                                                      *
 * [ABORT]                                                                     *
 *  \___/     SCF run NOT converged. To continue the calculation regardless,   *
 *    |             please set the keyword IGNORE_CONVERGENCE_FAILURE.         *
 *  O/|                                                                        *
 * /| |                                                                        *
 * / \                                                            qs_scf.F:611 *
 *******************************************************************************


 ===== Routine Calling Stack ===== 

            3 scf_env_do_scf
            2 qs_energies
            1 CP2K

 *******************************************************************************
 *   ___                                                                       *
 *  /   \                                                                      *
 * [ABORT]                                                                     *
 *  \___/     SCF run NOT converged. To continue the calculation regardless,   *
 *    |             please set the keyword IGNORE_CONVERGENCE_FAILURE.         *
 *  O/|                                                                        *
 * /| |                                                                        *
 * / \                                                            qs_scf.F:611 *
 *******************************************************************************


 ===== Routine Calling Stack ===== 

            3 scf_env_do_scf
            2 qs_energies
            1 CP2K
