 DBCSR| CPU Multiplication driver                                           BLAS (U)
 DBCSR| Multrec recursion limit                                              512 (U)
 DBCSR| Multiplication stack size                                           1000 (D)
 DBCSR| Maximum elements for images                                    UNLIMITED (U)
 DBCSR| Multiplicative factor virtual images                                   1 (U)
 DBCSR| Use multiplication densification                                       T (D)
 DBCSR| Multiplication size stacks                                             3 (U)
 DBCSR| Use memory pool for CPU allocation                                     F (U)
 DBCSR| Number of 3D layers                                               SINGLE (U)
 DBCSR| Use MPI memory allocation                                              F (U)
 DBCSR| Use RMA algorithm                                                      F (U)
 DBCSR| Use Communication thread                                               T (U)
 DBCSR| Communication thread load                                             75 (D)
 DBCSR| MPI: My process id                                                     0
 DBCSR| MPI: Number of processes                                              24
 DBCSR| OMP: Current number of threads                                         4
 DBCSR| OMP: Max number of threads                                             4
 DBCSR| Split modifier for TAS multiplication algorithm                  1.0E+00 (U)


  **** **** ******  **  PROGRAM STARTED AT               2025-03-16 13:56:13.029
 ***** ** ***  *** **   PROGRAM STARTED ON                          i05r01c03s11
 **    ****   ******    PROGRAM STARTED BY                               di38fab
 ***** **    ** ** **   PROGRAM PROCESS ID                               3765059
  **** **  *******  **  PROGRAM STARTED IN /hppfs/scratch/04/di38fab/05_MOL/W4-1
                                           1+ALK/nh/SZV/GW+BSE/Np1

 CP2K| version string:                 CP2K version 2025.1 (Development Version)
 CP2K| source code revision number:                                  git:d2e611a
 CP2K| cp2kflags: omp libint fftw3 libxc parallel scalapack max_contr=4         
 CP2K| is freely available from                            https://www.cp2k.org/
 CP2K| Program compiled at                       Thu 06 Mar 2025 05:09:20 PM CET
 CP2K| Program compiled on                                               login02
 CP2K| Program compiled for                                        Supermuc-foss
 CP2K| Data directory path                  /hppfs/work/pn36zo/di38fab/cp2k/data
 CP2K| Input file name                                                    GW.inp

 GLOBAL| Force Environment number                                              1
 GLOBAL| Basis set file name            /hppfs/scratch/04/di38fab/04_TMD/BASIS_A
 GLOBAL| Potential file name            /hppfs/work/pn36zo/di38fab/cp2k/data/ALL
 GLOBAL| MM Potential file name                                     MM_POTENTIAL
 GLOBAL| Coordinate file name                                      __STD_INPUT__
 GLOBAL| Method name                                                        CP2K
 GLOBAL| Project name                                                       MoS2
 GLOBAL| Run type                                                         ENERGY
 GLOBAL| FFT library                                                       FFTW3
 GLOBAL| Diagonalization library                                       ScaLAPACK
 GLOBAL| DGEMM library                                                      BLAS
 GLOBAL| Orthonormality check for eigenvectors                          DISABLED
 GLOBAL| Matrix multiplication library                                 ScaLAPACK
 GLOBAL| All-to-all communication in single precision                          F
 GLOBAL| FFTs using library dependent lengths                                  F
 GLOBAL| Grid backend                                                       AUTO
 GLOBAL| Global print level                                               MEDIUM
 GLOBAL| MPI I/O enabled                                                       T
 GLOBAL| Total number of message passing processes                            24
 GLOBAL| Number of threads for this process                                    4
 GLOBAL| This output is from process                                           0
 GLOBAL| OpenMP stack size per thread (OMP_STACKSIZE)                    default
 GLOBAL| CPU model name             Intel(R) Xeon(R) Platinum 8174 CPU @ 3.10GHz

 MEMORY| system memory details [Kb]
 MEMORY|                        rank 0           min           max       average
 MEMORY| MemTotal             98436692      98436660      98436692      98436676
 MEMORY| MemFree              84790492      83889376      84790492      84339934
 MEMORY| Buffers                     0             0             0             0
 MEMORY| Cached                2383368       2383368       2384612       2383990
 MEMORY| Slab                  1089336       1089336       1226248       1157792
 MEMORY| SReclaimable           247060        247060        270276        258668
 MEMORY| MemLikelyFree        87420920      86544264      87420920      86982592


 *** Fundamental physical constants (SI units) ***

 *** Literature: B. J. Mohr and B. N. Taylor,
 ***             CODATA recommended values of the fundamental physical
 ***             constants: 2006, Web Version 5.1
 ***             http://physics.nist.gov/constants

 Speed of light in vacuum [m/s]                             2.99792458000000E+08
 Magnetic constant or permeability of vacuum [N/A**2]       1.25663706143592E-06
 Electric constant or permittivity of vacuum [F/m]          8.85418781762039E-12
 Planck constant (h) [J*s]                                  6.62606896000000E-34
 Planck constant (h-bar) [J*s]                              1.05457162825177E-34
 Elementary charge [C]                                      1.60217648700000E-19
 Electron mass [kg]                                         9.10938215000000E-31
 Electron g factor [ ]                                     -2.00231930436220E+00
 Proton mass [kg]                                           1.67262163700000E-27
 Fine-structure constant                                    7.29735253760000E-03
 Rydberg constant [1/m]                                     1.09737315685270E+07
 Avogadro constant [1/mol]                                  6.02214179000000E+23
 Boltzmann constant [J/K]                                   1.38065040000000E-23
 Atomic mass unit [kg]                                      1.66053878200000E-27
 Bohr radius [m]                                            5.29177208590000E-11

 *** Conversion factors ***

 [u] -> [a.u.]                                              1.82288848426455E+03
 [Angstrom] -> [Bohr] = [a.u.]                              1.88972613288564E+00
 [a.u.] = [Bohr] -> [Angstrom]                              5.29177208590000E-01
 [a.u.] -> [s]                                              2.41888432650478E-17
 [a.u.] -> [fs]                                             2.41888432650478E-02
 [a.u.] -> [J]                                              4.35974393937059E-18
 [a.u.] -> [N]                                              8.23872205491840E-08
 [a.u.] -> [K]                                              3.15774647902944E+05
 [a.u.] -> [kJ/mol]                                         2.62549961709828E+03
 [a.u.] -> [kcal/mol]                                       6.27509468713739E+02
 [a.u.] -> [Pa]                                             2.94210107994716E+13
 [a.u.] -> [bar]                                            2.94210107994716E+08
 [a.u.] -> [atm]                                            2.90362800883016E+08
 [a.u.] -> [eV]                                             2.72113838565563E+01
 [a.u.] -> [Hz]                                             6.57968392072181E+15
 [a.u.] -> [1/cm] (wave numbers)                            2.19474631370540E+05
 [a.u./Bohr**2] -> [1/cm]                                   5.14048714338585E+03
 

 CELL_TOP| Volume [angstrom^3]:                                     27000.000000
 CELL_TOP| Vector a [angstrom    30.000     0.000     0.000   |a| =    30.000000
 CELL_TOP| Vector b [angstrom     0.000    30.000     0.000   |b| =    30.000000
 CELL_TOP| Vector c [angstrom     0.000     0.000    30.000   |c| =    30.000000
 CELL_TOP| Angle (b,c), alpha [degree]:                                90.000000
 CELL_TOP| Angle (a,c), beta  [degree]:                                90.000000
 CELL_TOP| Angle (a,b), gamma [degree]:                                90.000000
 CELL_TOP| Numerically orthorhombic:                                         YES
 CELL_TOP| Periodicity                                                      NONE

 GENERATE|  Preliminary Number of Bonds generated:                             0
 GENERATE|  Achieved consistency in connectivity generation.

 CELL| Volume [angstrom^3]:                                         27000.000000
 CELL| Vector a [angstrom]:      30.000     0.000     0.000   |a| =    30.000000
 CELL| Vector b [angstrom]:       0.000    30.000     0.000   |b| =    30.000000
 CELL| Vector c [angstrom]:       0.000     0.000    30.000   |c| =    30.000000
 CELL| Angle (b,c), alpha [degree]:                                    90.000000
 CELL| Angle (a,c), beta  [degree]:                                    90.000000
 CELL| Angle (a,b), gamma [degree]:                                    90.000000
 CELL| Numerically orthorhombic:                                             YES
 CELL| Periodicity                                                          NONE

 CELL_REF| Volume [angstrom^3]:                                     27000.000000
 CELL_REF| Vector a [angstrom    30.000     0.000     0.000   |a| =    30.000000
 CELL_REF| Vector b [angstrom     0.000    30.000     0.000   |b| =    30.000000
 CELL_REF| Vector c [angstrom     0.000     0.000    30.000   |c| =    30.000000
 CELL_REF| Angle (b,c), alpha [degree]:                                90.000000
 CELL_REF| Angle (a,c), beta  [degree]:                                90.000000
 CELL_REF| Angle (a,b), gamma [degree]:                                90.000000
 CELL_REF| Numerically orthorhombic:                                         YES
 CELL_REF| Periodicity                                                      NONE

 *******************************************************************************
 *******************************************************************************
 **                                                                           **
 **     #####                         ##              ##                      **
 **    ##   ##            ##          ##              ##                      **
 **   ##     ##                       ##            ######                    **
 **   ##     ##  ##   ##  ##   #####  ##  ##   ####   ##    #####    #####    **
 **   ##     ##  ##   ##  ##  ##      ## ##   ##      ##   ##   ##  ##   ##   **
 **   ##  ## ##  ##   ##  ##  ##      ####     ###    ##   ######   ######    **
 **    ##  ###   ##   ##  ##  ##      ## ##      ##   ##   ##       ##        **
 **     #######   #####   ##   #####  ##  ##  ####    ##    #####   ##        **
 **           ##                                                    ##        **
 **                                                                           **
 **                                                ... make the atoms dance   **
 **                                                                           **
 **            Copyright (C) by CP2K developers group (2000-2025)             **
 **                      J. Chem. Phys. 152, 194103 (2020)                    **
 **                                                                           **
 *******************************************************************************

 DFT| Spin restricted Kohn-Sham (RKS) calculation                            RKS
 DFT| Multiplicity                                                             1
 DFT| Number of spin states                                                    1
 DFT| Charge                                                                   0
 DFT| Self-interaction correction (SIC)                                       NO
 DFT| Cutoffs: density                                              1.000000E-10
 DFT|          gradient                                             1.000000E-10
 DFT|          tau                                                  1.000000E-10
 DFT|          cutoff_smoothing_range                               0.000000E+00
 DFT| XC density smoothing                                                  NONE
 DFT| XC derivatives                                                          PW

 FUNCTIONAL| PBE:
 FUNCTIONAL| J.P.Perdew, K.Burke, M.Ernzerhof, Phys. Rev. Letter, vol. 77, n 18,
 FUNCTIONAL|  pp. 3865-3868, (1996)sx=0.750sc=1.000{spin unpolarized}           


 QS| Method:                                                                GAPW
 QS| Density plane wave grid type                        NON-SPHERICAL FULLSPACE
 QS| Number of grid levels:                                                    4
 QS| Density cutoff [a.u.]:                                                250.0
 QS| Multi grid cutoff [a.u.]: 1) grid level                               250.0
 QS|                           2) grid level                                83.3
 QS|                           3) grid level                                27.8
 QS|                           4) grid level                                 9.3
 QS| Grid level progression factor:                                          3.0
 QS| Relative density cutoff [a.u.]:                                        50.0
 QS| Interaction thresholds: eps_pgf_orb:                                1.0E-12
 QS|                         eps_filter_matrix:                          0.0E+00
 QS|                         eps_core_charge:                            1.0E-14
 QS|                         eps_rho_gspace:                             1.0E-12
 QS|                         eps_rho_rspace:                             1.0E-12
 QS|                         eps_gvg_rspace:                             1.0E-06
 QS|                         eps_ppl:                                    1.0E-02
 QS|                         eps_ppnl:                                   1.0E-08
 QS| GAPW|      One center basis from orbital basis primitives
 QS| GAPW|                   eps_fit:                                    1.0E-04
 QS| GAPW|                   eps_iso:                                    1.0E-12
 QS| GAPW|                   eps_svd:                                    1.0E-08
 QS| GAPW|                   eps_cpc:                                    1.0E-12
 QS| GAPW|   atom-r-grid: quadrature:                                     GC_LOG
 QS| GAPW|      atom-s-grid:  max l :                                          4
 QS| GAPW|      max_l_rho0 :                                                   2


 ATOMIC KIND INFORMATION

  1. Atomic kind: N                                     Number of atoms:       1

     Orbital Basis Set                                         aug-SZV-MOLOPT-ae

       Number of orbital shell sets:                                           2
       Number of orbital shells:                                               6
       Number of primitive Cartesian functions:                               13
       Number of Cartesian basis functions:                                   15
       Number of spherical basis functions:                                   14
       Norm type:                                                              2

       Normalised Cartesian orbitals:

                        Set   Shell   Orbital            Exponent    Coefficient

                          1       1    1s                0.090000       0.000000
                                                         0.184684       0.048330
                                                         0.402911       0.214496
                                                         0.927724       0.168591
                                                         2.411326      -0.046594
                                                         7.758467      -0.155691
                                                        39.198808      -0.147969

                          1       2    2s                0.090000      -0.118940
                                                         0.184684       0.080942
                                                         0.402911      -0.164238
                                                         0.927724      -0.024406
                                                         2.411326       0.000000
                                                         7.758467       0.000000
                                                        39.198808       0.000000

                          1       3    2px               0.090000       0.000000
                                                         0.184684       0.017552
                                                         0.402911       0.194858
                                                         0.927724       0.542535
                                                         2.411326       0.744820
                                                         7.758467       0.695446
                                                        39.198808       0.525635
                          1       3    2py               0.090000       0.000000
                                                         0.184684       0.017552
                                                         0.402911       0.194858
                                                         0.927724       0.542535
                                                         2.411326       0.744820
                                                         7.758467       0.695446
                                                        39.198808       0.525635
                          1       3    2pz               0.090000       0.000000
                                                         0.184684       0.017552
                                                         0.402911       0.194858
                                                         0.927724       0.542535
                                                         2.411326       0.744820
                                                         7.758467       0.695446
                                                        39.198808       0.525635

                          1       4    3px               0.090000      -0.032237
                                                         0.184684      -0.080882
                                                         0.402911       0.112185
                                                         0.927724       1.067728
                                                         2.411326       0.000000
                                                         7.758467       0.000000
                                                        39.198808       0.000000
                          1       4    3py               0.090000      -0.032237
                                                         0.184684      -0.080882
                                                         0.402911       0.112185
                                                         0.927724       1.067728
                                                         2.411326       0.000000
                                                         7.758467       0.000000
                                                        39.198808       0.000000
                          1       4    3pz               0.090000      -0.032237
                                                         0.184684      -0.080882
                                                         0.402911       0.112185
                                                         0.927724       1.067728
                                                         2.411326       0.000000
                                                         7.758467       0.000000
                                                        39.198808       0.000000

                          1       5    3dx2              0.090000      -0.010633
                                                         0.184684      -0.050923
                                                         0.402911       0.103346
                                                         0.927724      -0.777682
                                                         2.411326       0.000000
                                                         7.758467       0.000000
                                                        39.198808       0.000000
                          1       5    3dxy              0.090000      -0.018417
                                                         0.184684      -0.088201
                                                         0.402911       0.179000
                                                         0.927724      -1.346985
                                                         2.411326       0.000000
                                                         7.758467       0.000000
                                                        39.198808       0.000000
                          1       5    3dxz              0.090000      -0.018417
                                                         0.184684      -0.088201
                                                         0.402911       0.179000
                                                         0.927724      -1.346985
                                                         2.411326       0.000000
                                                         7.758467       0.000000
                                                        39.198808       0.000000
                          1       5    3dy2              0.090000      -0.010633
                                                         0.184684      -0.050923
                                                         0.402911       0.103346
                                                         0.927724      -0.777682
                                                         2.411326       0.000000
                                                         7.758467       0.000000
                                                        39.198808       0.000000
                          1       5    3dyz              0.090000      -0.018417
                                                         0.184684      -0.088201
                                                         0.402911       0.179000
                                                         0.927724      -1.346985
                                                         2.411326       0.000000
                                                         7.758467       0.000000
                                                        39.198808       0.000000
                          1       5    3dz2              0.090000      -0.010633
                                                         0.184684      -0.050923
                                                         0.402911       0.103346
                                                         0.927724      -0.777682
                                                         2.411326       0.000000
                                                         7.758467       0.000000
                                                        39.198808       0.000000

                          2       1    1s             1027.828458       1.185541
                                                       188.451223       1.789359
                                                        52.721861       2.350183
                                                        18.111382       2.318652
                                                         7.033180       1.281976
                                                         2.896652       0.206248

     RI Auxiliary Basis Set             RI_aug-SZV-MOLOPT-ae_N_RI_051_s_p_d_f_g_

       Number of orbital shell sets:                                          17
       Number of orbital shells:                                              17
       Number of primitive Cartesian functions:                               17
       Number of Cartesian basis functions:                                   60
       Number of spherical basis functions:                                   51
       Norm type:                                                              2

       Normalised Cartesian orbitals:

                        Set   Shell   Orbital            Exponent    Coefficient

                          1       1    1s                0.308884       0.295295

                          2       1    8px               0.372325       0.414565
                          2       1    8py               0.372325       0.414565
                          2       1    8pz               0.372325       0.414565

                          3       1   13dx2              0.401147       0.332805
                          3       1   13dxy              0.401147       0.576435
                          3       1   13dxz              0.401147       0.576435
                          3       1   13dy2              0.401147       0.332805
                          3       1   13dyz              0.401147       0.576435
                          3       1   13dz2              0.401147       0.332805

                          4       1   16fx3              0.613602       0.490569
                          4       1   16fx2y             0.613602       1.096946
                          4       1   16fx2z             0.613602       1.096946
                          4       1   16fxy2             0.613602       1.096946
                          4       1   16fxyz             0.613602       1.899967
                          4       1   16fxz2             0.613602       1.096946
                          4       1   16fy3              0.613602       0.490569
                          4       1   16fy2z             0.613602       1.096946
                          4       1   16fyz2             0.613602       1.096946
                          4       1   16fz3              0.613602       0.490569

                          5       1    2s                0.845155       0.628221

                          6       1    9px               1.077639       1.565062
                          6       1    9py               1.077639       1.565062
                          6       1    9pz               1.077639       1.565062

                          7       1   14dx2              1.441421       3.120996
                          7       1   14dxy              1.441421       5.405723
                          7       1   14dxz              1.441421       5.405723
                          7       1   14dy2              1.441421       3.120996
                          7       1   14dyz              1.441421       5.405723
                          7       1   14dz2              1.441421       3.120996

                          8       1   17fx3              2.081896       7.664558
                          8       1   17fx2y             2.081896      17.138473
                          8       1   17fx2z             2.081896      17.138473
                          8       1   17fxy2             2.081896      17.138473
                          8       1   17fxyz             2.081896      29.684706
                          8       1   17fxz2             2.081896      17.138473
                          8       1   17fy3              2.081896       7.664558
                          8       1   17fy2z             2.081896      17.138473
                          8       1   17fyz2             2.081896      17.138473
                          8       1   17fz3              2.081896       7.664558

                          9       1   10px               2.237750       3.901257
                          9       1   10py               2.237750       3.901257
                          9       1   10pz               2.237750       3.901257

                         10       1    3s                2.278088       1.321563

                         11       1   15dx2              5.280359      30.274047
                         11       1   15dxy              5.280359      52.436187
                         11       1   15dxz              5.280359      52.436187
                         11       1   15dy2              5.280359      30.274047
                         11       1   15dyz              5.280359      52.436187
                         11       1   15dz2              5.280359      30.274047

                         12       1    4s                6.008482       2.735166

                         13       1   11px               7.627165      18.067331
                         13       1   11py               7.627165      18.067331
                         13       1   11pz               7.627165      18.067331

                         14       1    5s               15.831184       5.656466

                         15       1   12px              22.316937      69.140629
                         15       1   12py              22.316937      69.140629
                         15       1   12pz              22.316937      69.140629

                         16       1    6s               41.723131      11.700186

                         17       1    7s              109.969173      24.202672

       Atomic covalent radius [Angstrom]:                                  0.750

       Atomic van der Waals radius [Angstrom]:                             1.550

     The atoms of this atomic kind are PAW atoms (GAPW):
       Hard Gaussian function radius:                                      1.512
       Rho0 radius:                                                        1.512
       Maximum GTO radius used for PAW projector construction:            24.566

     GAPW Soft Basis Set                                  aug-SZV-MOLOPT-ae_soft

       Number of orbital shell sets:                                           2
       Number of orbital shells:                                               6
       Number of primitive Cartesian functions:                                6
       Number of Cartesian basis functions:                                   15
       Number of spherical basis functions:                                   14
       Norm type:                                                              2

       Normalised Cartesian orbitals:

                        Set   Shell   Orbital            Exponent    Coefficient

                          1       1    1s                0.090000       0.000000
                                                         0.184684       0.048330
                                                         0.402911       0.214496
                                                         0.927724       0.168591
                                                         2.411326      -0.046594

                          1       2    2s                0.090000      -0.118940
                                                         0.184684       0.080942
                                                         0.402911      -0.164238
                                                         0.927724      -0.024406
                                                         2.411326       0.000000

                          1       3    2px               0.090000       0.000000
                                                         0.184684       0.017552
                                                         0.402911       0.194858
                                                         0.927724       0.542535
                                                         2.411326       0.744820
                          1       3    2py               0.090000       0.000000
                                                         0.184684       0.017552
                                                         0.402911       0.194858
                                                         0.927724       0.542535
                                                         2.411326       0.744820
                          1       3    2pz               0.090000       0.000000
                                                         0.184684       0.017552
                                                         0.402911       0.194858
                                                         0.927724       0.542535
                                                         2.411326       0.744820

                          1       4    3px               0.090000      -0.032237
                                                         0.184684      -0.080882
                                                         0.402911       0.112185
                                                         0.927724       1.067728
                                                         2.411326       0.000000
                          1       4    3py               0.090000      -0.032237
                                                         0.184684      -0.080882
                                                         0.402911       0.112185
                                                         0.927724       1.067728
                                                         2.411326       0.000000
                          1       4    3pz               0.090000      -0.032237
                                                         0.184684      -0.080882
                                                         0.402911       0.112185
                                                         0.927724       1.067728
                                                         2.411326       0.000000

                          1       5    3dx2              0.090000      -0.010633
                                                         0.184684      -0.050923
                                                         0.402911       0.103346
                                                         0.927724      -0.777682
                                                         2.411326       0.000000
                          1       5    3dxy              0.090000      -0.018417
                                                         0.184684      -0.088201
                                                         0.402911       0.179000
                                                         0.927724      -1.346985
                                                         2.411326       0.000000
                          1       5    3dxz              0.090000      -0.018417
                                                         0.184684      -0.088201
                                                         0.402911       0.179000
                                                         0.927724      -1.346985
                                                         2.411326       0.000000
                          1       5    3dy2              0.090000      -0.010633
                                                         0.184684      -0.050923
                                                         0.402911       0.103346
                                                         0.927724      -0.777682
                                                         2.411326       0.000000
                          1       5    3dyz              0.090000      -0.018417
                                                         0.184684      -0.088201
                                                         0.402911       0.179000
                                                         0.927724      -1.346985
                                                         2.411326       0.000000
                          1       5    3dz2              0.090000      -0.010633
                                                         0.184684      -0.050923
                                                         0.402911       0.103346
                                                         0.927724      -0.777682
                                                         2.411326       0.000000

                          2       1    1s                2.896652       0.206248

     AE Potential information for                                            ALL

       Description:                                       All-electron potential
                                          Krack, Parrinello, PCCP 2, 2105 (2000)

       Gaussian exponent of the core charge distribution:               5.979100
       Electronic configuration (s p d ...):                           4   3   0

  2. Atomic kind: H                                     Number of atoms:       1

     Orbital Basis Set                                         aug-SZV-MOLOPT-ae

       Number of orbital shell sets:                                           1
       Number of orbital shells:                                               4
       Number of primitive Cartesian functions:                                7
       Number of Cartesian basis functions:                                    6
       Number of spherical basis functions:                                    6
       Norm type:                                                              2

       Normalised Cartesian orbitals:

                        Set   Shell   Orbital            Exponent    Coefficient

                          1       1    1s                0.065428       0.000000
                                                         0.100112       0.016532
                                                         0.243077       0.102760
                                                         0.625955       0.185857
                                                         1.822143       0.188385
                                                         6.513144       0.143430
                                                        35.523221       0.095030

                          1       2    2s                0.065428       0.083549
                                                         0.100112       0.009605
                                                         0.243077       0.002524
                                                         0.625955       0.013457
                                                         1.822143       0.000000
                                                         6.513144       0.000000
                                                        35.523221       0.000000

                          1       3    3s                0.065428       0.037407
                                                         0.100112      -0.169070
                                                         0.243077      -0.018899
                                                         0.625955       0.012806
                                                         1.822143       0.000000
                                                         6.513144       0.000000
                                                        35.523221       0.000000

                          1       4    2px               0.065428       0.059908
                                                         0.100112      -0.023770
                                                         0.243077       0.000032
                                                         0.625955       0.017779
                                                         1.822143       0.000000
                                                         6.513144       0.000000
                                                        35.523221       0.000000
                          1       4    2py               0.065428       0.059908
                                                         0.100112      -0.023770
                                                         0.243077       0.000032
                                                         0.625955       0.017779
                                                         1.822143       0.000000
                                                         6.513144       0.000000
                                                        35.523221       0.000000
                          1       4    2pz               0.065428       0.059908
                                                         0.100112      -0.023770
                                                         0.243077       0.000032
                                                         0.625955       0.017779
                                                         1.822143       0.000000
                                                         6.513144       0.000000
                                                        35.523221       0.000000

     RI Auxiliary Basis Set             RI_aug-SZV-MOLOPT-ae_N_RI_007_s_p_d_f_g_

       Number of orbital shell sets:                                           5
       Number of orbital shells:                                               5
       Number of primitive Cartesian functions:                                5
       Number of Cartesian basis functions:                                    7
       Number of spherical basis functions:                                    7
       Norm type:                                                              2

       Normalised Cartesian orbitals:

                        Set   Shell   Orbital            Exponent    Coefficient

                          1       1    1s                0.148777       0.170731

                          2       1    5px               0.367452       0.407794
                          2       1    5py               0.367452       0.407794
                          2       1    5pz               0.367452       0.407794

                          3       1    2s                0.510503       0.430437

                          4       1    3s                1.106366       0.768837

                          5       1    4s                5.955292       2.716986

       Atomic covalent radius [Angstrom]:                                  0.320

       Atomic van der Waals radius [Angstrom]:                             1.090

     The atoms of this atomic kind are PAW atoms (GAPW):
       Hard Gaussian function radius:                                      1.200
       Rho0 radius:                                                        1.200
       Maximum GTO radius used for PAW projector construction:            24.566

     GAPW Soft Basis Set                                  aug-SZV-MOLOPT-ae_soft

       Number of orbital shell sets:                                           1
       Number of orbital shells:                                               4
       Number of primitive Cartesian functions:                                6
       Number of Cartesian basis functions:                                    6
       Number of spherical basis functions:                                    6
       Norm type:                                                              2

       Normalised Cartesian orbitals:

                        Set   Shell   Orbital            Exponent    Coefficient

                          1       1    1s                0.065428       0.000000
                                                         0.100112       0.016532
                                                         0.243077       0.102760
                                                         0.625955       0.185857
                                                         1.822143       0.188385
                                                         6.513144       0.000000

                          1       2    2s                0.065428       0.083549
                                                         0.100112       0.009605
                                                         0.243077       0.002524
                                                         0.625955       0.013457
                                                         1.822143       0.000000
                                                         6.513144       0.000000

                          1       3    3s                0.065428       0.037407
                                                         0.100112      -0.169070
                                                         0.243077      -0.018899
                                                         0.625955       0.012806
                                                         1.822143       0.000000
                                                         6.513144       0.000000

                          1       4    2px               0.065428       0.059908
                                                         0.100112      -0.023770
                                                         0.243077       0.000032
                                                         0.625955       0.017779
                                                         1.822143       0.000000
                                                         6.513144       0.000000
                          1       4    2py               0.065428       0.059908
                                                         0.100112      -0.023770
                                                         0.243077       0.000032
                                                         0.625955       0.017779
                                                         1.822143       0.000000
                                                         6.513144       0.000000
                          1       4    2pz               0.065428       0.059908
                                                         0.100112      -0.023770
                                                         0.243077       0.000032
                                                         0.625955       0.017779
                                                         1.822143       0.000000
                                                         6.513144       0.000000

     AE Potential information for                                            ALL

       Description:                                       All-electron potential
                                          Krack, Parrinello, PCCP 2, 2105 (2000)

       Gaussian exponent of the core charge distribution:              12.500000
       Electronic configuration (s p d ...):                           1   0   0


 MOLECULE KIND INFORMATION


 All atoms are their own molecule, skipping detailed information


 TOTAL NUMBERS AND MAXIMUM NUMBERS

  Total number of            - Atomic kinds:                                   2
                             - Atoms:                                          2
                             - Shell sets:                                     3
                             - Shells:                                        10
                             - Primitive Cartesian functions:                 20
                             - Cartesian basis functions:                     21
                             - Spherical basis functions:                     20

  Maximum angular momentum of the orbital basis functions:                     2


 MODULE QUICKSTEP: ATOMIC COORDINATES IN ANGSTROM

   Atom Kind Element         X             Y             Z       Z(eff)     Mass
      1    1 N     7     15.518596     15.000000     15.000000   7.0000  14.0067
      2    2 H     1     14.481404     15.000000     15.000000   1.0000   1.0079



 SCF PARAMETERS         Density guess:                                    ATOMIC
                        --------------------------------------------------------
                        max_scf:                                             500
                        max_scf_history:                                       0
                        max_diis:                                              4
                        --------------------------------------------------------
                        eps_scf:                                        1.00E-06
                        eps_scf_history:                                0.00E+00
                        eps_diis:                                       1.00E-01
                        eps_eigval:                                     1.00E-05
                        --------------------------------------------------------
                        level_shift [a.u.]:                             0.000000
                        added MOs                                        16    0
                        --------------------------------------------------------
                        Mixing method:                            BROYDEN_MIXING
                                                charge density mixing in g-space
                        --------------------------------------------------------
                        No outer SCF

 PW_GRID| Information for grid number                                          1
 PW_GRID| Grid distributed over                                    24 processors
 PW_GRID| Real space group dimensions                                    24    1
 PW_GRID| the grid is blocked:                                                NO
 PW_GRID| Cutoff [a.u.]                                                    250.0
 PW_GRID| spherical cutoff:                                                   NO
 PW_GRID|   Bounds   1           -202     202                Points:         405
 PW_GRID|   Bounds   2           -202     202                Points:         405
 PW_GRID|   Bounds   3           -202     202                Points:         405
 PW_GRID| Volume element (a.u.^3)  0.2743E-02     Volume (a.u.^3)    182205.0337
 PW_GRID| Grid span                                                    FULLSPACE
 PW_GRID|   Distribution                         Average         Max         Min
 PW_GRID|   G-Vectors                          2767921.9     2768175     2767770
 PW_GRID|   G-Rays                                6834.4        6835        6834
 PW_GRID|   Real Space Points                  2767921.9     2788425     2624400

 PW_GRID| Information for grid number                                          2
 PW_GRID| Number of the reference grid                                         1
 PW_GRID| Grid distributed over                                    24 processors
 PW_GRID| Real space group dimensions                                    24    1
 PW_GRID| the grid is blocked:                                                NO
 PW_GRID| Cutoff [a.u.]                                                     83.3
 PW_GRID| spherical cutoff:                                                   NO
 PW_GRID|   Bounds   1           -120     119                Points:         240
 PW_GRID|   Bounds   2           -120     119                Points:         240
 PW_GRID|   Bounds   3           -120     119                Points:         240
 PW_GRID| Volume element (a.u.^3)  0.1318E-01     Volume (a.u.^3)    182205.0337
 PW_GRID| Grid span                                                    FULLSPACE
 PW_GRID|   Distribution                         Average         Max         Min
 PW_GRID|   G-Vectors                           576000.0      576240      575760
 PW_GRID|   G-Rays                                2400.0        2401        2399
 PW_GRID|   Real Space Points                   576000.0      576000      576000

 PW_GRID| Information for grid number                                          3
 PW_GRID| Number of the reference grid                                         1
 PW_GRID| Grid distributed over                                    24 processors
 PW_GRID| Real space group dimensions                                    24    1
 PW_GRID| the grid is blocked:                                                NO
 PW_GRID| Cutoff [a.u.]                                                     27.8
 PW_GRID| spherical cutoff:                                                   NO
 PW_GRID|   Bounds   1            -67      67                Points:         135
 PW_GRID|   Bounds   2            -67      67                Points:         135
 PW_GRID|   Bounds   3            -67      67                Points:         135
 PW_GRID| Volume element (a.u.^3)  0.7406E-01     Volume (a.u.^3)    182205.0337
 PW_GRID| Grid span                                                    FULLSPACE
 PW_GRID|   Distribution                         Average         Max         Min
 PW_GRID|   G-Vectors                           102515.6      102735      102330
 PW_GRID|   G-Rays                                 759.4         761         758
 PW_GRID|   Real Space Points                   102515.6      109350       91125

 PW_GRID| Information for grid number                                          4
 PW_GRID| Number of the reference grid                                         1
 PW_GRID| Grid distributed over                                    24 processors
 PW_GRID| Real space group dimensions                                    24    1
 PW_GRID| the grid is blocked:                                                NO
 PW_GRID| Cutoff [a.u.]                                                      9.3
 PW_GRID| spherical cutoff:                                                   NO
 PW_GRID|   Bounds   1            -40      39                Points:          80
 PW_GRID|   Bounds   2            -40      39                Points:          80
 PW_GRID|   Bounds   3            -40      39                Points:          80
 PW_GRID| Volume element (a.u.^3)  0.3559         Volume (a.u.^3)    182205.0337
 PW_GRID| Grid span                                                    FULLSPACE
 PW_GRID|   Distribution                         Average         Max         Min
 PW_GRID|   G-Vectors                            21333.3       21360       21280
 PW_GRID|   G-Rays                                 266.7         267         266
 PW_GRID|   Real Space Points                    21333.3       25600       19200

 POISSON| Solver                                                         WAVELET
 POISSON| Wavelet| Scaling function                                           40
 POISSON| Periodicity                                                       NONE

 RS_GRID| Information for grid number                                          1
 RS_GRID|   Bounds   1           -202     202                Points:         405
 RS_GRID|   Bounds   2           -202     202                Points:         405
 RS_GRID|   Bounds   3           -202     202                Points:         405
 RS_GRID| Real space distribution over                                  4 groups
 RS_GRID| Real space distribution along direction                              2
 RS_GRID| Border size                                                         33
 RS_GRID| Real space distribution over                                  6 groups
 RS_GRID| Real space distribution along direction                              3
 RS_GRID| Border size                                                         33
 RS_GRID|   Distribution                         Average         Max         Min
 RS_GRID|   Planes                                 167.2         168         167
 RS_GRID|   Distribution                         Average         Max         Min
 RS_GRID|   Planes                                 133.5         134         133

 RS_GRID| Information for grid number                                          2
 RS_GRID|   Bounds   1           -120     119                Points:         240
 RS_GRID|   Bounds   2           -120     119                Points:         240
 RS_GRID|   Bounds   3           -120     119                Points:         240
 RS_GRID| Real space distribution over                                  4 groups
 RS_GRID| Real space distribution along direction                              2
 RS_GRID| Border size                                                         36
 RS_GRID| Real space distribution over                                  6 groups
 RS_GRID| Real space distribution along direction                              3
 RS_GRID| Border size                                                         36
 RS_GRID|   Distribution                         Average         Max         Min
 RS_GRID|   Planes                                 132.0         132         132
 RS_GRID|   Distribution                         Average         Max         Min
 RS_GRID|   Planes                                 112.0         112         112

 RS_GRID| Information for grid number                                          3
 RS_GRID|   Bounds   1            -67      67                Points:         135
 RS_GRID|   Bounds   2            -67      67                Points:         135
 RS_GRID|   Bounds   3            -67      67                Points:         135
 RS_GRID| Real space fully replicated
 RS_GRID| Group size                                                           1

 RS_GRID| Information for grid number                                          4
 RS_GRID|   Bounds   1            -40      39                Points:          80
 RS_GRID|   Bounds   2            -40      39                Points:          80
 RS_GRID|   Bounds   3            -40      39                Points:          80
 RS_GRID| Real space fully replicated
 RS_GRID| Group size                                                           1

  HFX_INFO| Replica ID:                                                        1
  HFX_INFO| FRACTION:                                               0.2500000000
  HFX_INFO| Interaction Potential:                                       COULOMB
  HFX_INFO| EPS_SCHWARZ:                                                 1.0E-10
  HFX_INFO| EPS_SCHWARZ_FORCES                                           1.0E-08
  HFX_INFO| EPS_STORAGE_SCALING:                                         1.0E+00
  HFX_INFO| NBINS:                                                            64
  HFX_INFO| BLOCK_SIZE:                                                        1
  HFX_INFO| Number of periodic shells considered:                           NONE
  HFX_INFO| Number of periodic cells considered:                            NONE

 
 RI-RPA| using GPW style
 

 OVERLAP MATRIX CONDITION NUMBER
 1-Norm Condition Number (Estimate)
   CN : |A|*|A^-1|:  4.962E+000 *  7.084E+002   = 3.515E+003  Log(1-CN):  3.5459
 1-Norm and 2-Norm Condition Numbers using Diagonalization
   CN : |A|*|A^-1|:  4.962E+000 *  7.084E+002   = 3.515E+003  Log(1-CN):  3.5459
   CN : max/min ev:  3.965E+000 /  2.247E-003   = 1.764E+003  Log(2-CN):  3.2465

 Number of electrons:                                                          8
 Number of occupied orbitals:                                                  4
 Number of molecular orbitals:                                                20

 Number of orbital functions:                                                 20
 Number of independent orbital functions:                                     20

 Extrapolation method: initial_guess

 Atomic guess: The first density matrix is obtained in terms of atomic orbitals
               and electronic configurations assigned to each atomic kind

 Guess for atomic kind: N

 Electronic structure
    Total number of core electrons                                          0.00
    Total number of valence electrons                                       7.00
    Total number of electrons                                               7.00
    Multiplicity                                                   not specified
    S      2.00  2.00
    P      3.00


 *******************************************************************************
                  Iteration          Convergence                     Energy [au]
 *******************************************************************************
                          1        0.325929                     -53.884153266199
                          2        0.157204                     -53.911997171341
                          3        0.119206E-02                 -53.921312470162
                          4        0.146154E-04                 -53.921312958938
                          5        0.703430E-05                 -53.921312958993
                          6        0.461880E-05                 -53.921312959002
                          7        0.894723E-08                 -53.921312959009

 Energy components [Hartree]           Total Energy ::          -53.921312959009
                                        Band Energy ::          -30.455902305516
                                     Kinetic Energy ::           53.519410139912
                                   Potential Energy ::         -107.440723098921
                                      Virial (-V/T) ::            2.007509477740
                                        Core Energy ::          -73.216670532427
                                          XC Energy ::           -6.109461717977
                                     Coulomb Energy ::           25.404819291395

 Orbital energies  State     L     Occupation   Energy[a.u.]          Energy[eV]

                       1     0          2.000     -14.102420         -383.746365
                       2     0          2.000      -0.702220          -19.108372

                       1     1          3.000      -0.282208           -7.679258


 Total Electron Density at R=0:                                       175.030911

 Guess for atomic kind: H

 Electronic structure
    Total number of core electrons                                          0.00
    Total number of valence electrons                                       1.00
    Total number of electrons                                               1.00
    Multiplicity                                                   not specified
    S      1.00


 *******************************************************************************
                  Iteration          Convergence                     Energy [au]
 *******************************************************************************
                          1        0.962691E-02                  -0.444368661081
                          2        0.109107E-02                  -0.444473520424
                          3        0.117094E-03                  -0.444476577889
                          4        0.851579E-07                  -0.444476596085

 Energy components [Hartree]           Total Energy ::           -0.444476596085
                                        Band Energy ::           -0.233451424826
                                     Kinetic Energy ::            0.431260327433
                                   Potential Energy ::           -0.875736923518
                                      Virial (-V/T) ::            2.030645686170
                                        Core Energy ::           -0.494218917327
                                          XC Energy ::           -0.231476335377
                                     Coulomb Energy ::            0.281218656618

 Orbital energies  State     L     Occupation   Energy[a.u.]          Energy[eV]

                       1     0          1.000      -0.233451           -6.352536


 Total Electron Density at R=0:                                         0.270947
 Re-scaling the density matrix to get the right number of electrons
                  # Electrons              Trace(P)               Scaling factor
                            8                 8.000                        1.000


 SCF WAVEFUNCTION OPTIMIZATION

  Step     Update method      Time    Convergence         Total energy    Change
  ------------------------------------------------------------------------------

  HFX_MEM_INFO| Est. max. program size before HFX [MiB]:                    2139
  HFX_MEM_INFO| Number of cart. primitive ERI's calculated:             55945396
  HFX_MEM_INFO| Number of sph. ERI's calculated:                           73312
  HFX_MEM_INFO| Number of sph. ERI's stored in-core:                       73312
  HFX_MEM_INFO| Number of sph. ERI's stored on disk:                           0
  HFX_MEM_INFO| Number of sph. ERI's calculated on the fly:                    0
  HFX_MEM_INFO| Total memory consumption ERI's RAM [MiB]:                      1
  HFX_MEM_INFO| Whereof max-vals [MiB]:                                        1
  HFX_MEM_INFO| Total compression factor ERI's RAM:                         0.56
  HFX_MEM_INFO| Total memory consumption ERI's disk [MiB]:                     0
  HFX_MEM_INFO| Total compression factor ERI's disk:                        0.00
  HFX_MEM_INFO| Size of density/Fock matrix [MiB]:                             0
  HFX_MEM_INFO| Size of buffers [MiB]:                                         0
  HFX_MEM_INFO| Est. max. program size after HFX  [MiB]:                    2650

     1 NoMix/Diag. 0.10E+00    8.4     1.20487206       -54.9392288682 -5.49E+01
     2 Broy./Diag. 0.10E+00    4.7     0.07215929       -54.5193657581  4.20E-01
     3 Broy./Diag. 0.10E+00    4.7     0.09548813       -54.6305410414 -1.11E-01
     4 Broy./Diag. 0.10E+00    4.9     0.05075181       -54.8785510213 -2.48E-01
     5 Broy./Diag. 0.10E+00    4.8     0.01197281       -54.9898460986 -1.11E-01
     6 Broy./Diag. 0.10E+00    4.9     0.02163626       -54.9833363853  6.51E-03
     7 Broy./Diag. 0.10E+00    5.0     0.00401608       -54.9766621590  6.67E-03
     8 Broy./Diag. 0.10E+00    5.1     0.00856292       -54.9720393472  4.62E-03
     9 Broy./Diag. 0.10E+00    5.2     0.01295040       -54.9900226027 -1.80E-02
    10 Broy./Diag. 0.10E+00    5.3     0.00391261       -55.0101028304 -2.01E-02
    11 Broy./Diag. 0.10E+00    5.3     0.00783950       -54.9971940513  1.29E-02
    12 Broy./Diag. 0.10E+00    5.3     0.00061370       -54.9921631163  5.03E-03
    13 Broy./Diag. 0.10E+00    5.5     0.00827942       -54.9943491631 -2.19E-03
    14 Broy./Diag. 0.10E+00    5.3     0.00856144       -55.0011006516 -6.75E-03
    15 Broy./Diag. 0.10E+00    5.3     0.00129577       -55.0048401644 -3.74E-03
    16 Broy./Diag. 0.10E+00    5.3     0.00445936       -54.9996925506  5.15E-03
    17 Broy./Diag. 0.10E+00    5.4     0.00231608       -54.9969758403  2.72E-03
    18 Broy./Diag. 0.10E+00    5.4     0.00112791       -54.9962839517  6.92E-04
    19 Broy./Diag. 0.10E+00    5.3     0.00082775       -54.9972267512 -9.43E-04
    20 Broy./Diag. 0.10E+00    5.3     0.00082794       -54.9979234249 -6.97E-04
    21 Broy./Diag. 0.10E+00    5.3     0.00115586       -54.9984316018 -5.08E-04
    22 Broy./Diag. 0.10E+00    5.3     0.00021345       -54.9985990960 -1.67E-04
    23 Broy./Diag. 0.10E+00    5.4     0.00064028       -54.9977960672  8.03E-04
    24 Broy./Diag. 0.10E+00    5.3     0.00121882       -54.9973970009  3.99E-04
    25 Broy./Diag. 0.10E+00    5.4     0.00017550       -54.9975903386 -1.93E-04
    26 Broy./Diag. 0.10E+00    5.3     0.00025265       -54.9973760446  2.14E-04
    27 Broy./Diag. 0.10E+00    5.3     0.00015988       -54.9974968204 -1.21E-04
    28 Broy./Diag. 0.10E+00    5.3     0.00006759       -54.9977396899 -2.43E-04
    29 Broy./Diag. 0.10E+00    5.4     0.00013100       -54.9976812848  5.84E-05
    30 Broy./Diag. 0.10E+00    5.3     0.00037782       -54.9976609892  2.03E-05
    31 Broy./Diag. 0.10E+00    5.3     0.00015356       -54.9977093495 -4.84E-05
    32 Broy./Diag. 0.10E+00    5.3     0.00016444       -54.9976919635  1.74E-05
    33 Broy./Diag. 0.10E+00    5.3     0.00027560       -54.9976987556 -6.79E-06
    34 Broy./Diag. 0.10E+00    5.4     0.00050645       -54.9976791781  1.96E-05
    35 Broy./Diag. 0.10E+00    5.3     0.00086511       -54.9976701968  8.98E-06
    36 Broy./Diag. 0.10E+00    5.3     0.00154555       -54.9976728786 -2.68E-06
    37 Broy./Diag. 0.10E+00    5.3     0.00272846       -54.9976746231 -1.74E-06
    38 Broy./Diag. 0.10E+00    5.3     0.00481921       -54.9976736069  1.02E-06
    39 Broy./Diag. 0.10E+00    5.5     0.00852231       -54.9976674995  6.11E-06
    40 Broy./Diag. 0.10E+00    5.3     0.01507203       -54.9976726018 -5.10E-06
    41 Broy./Diag. 0.10E+00    5.3     0.02663910       -54.9976936301 -2.10E-05
    42 Broy./Diag. 0.10E+00    5.3     0.04702332       -54.9976343010  5.93E-05
    43 Broy./Diag. 0.10E+00    5.3     0.08235899       -54.9974375638  1.97E-04
    44 Broy./Diag. 0.10E+00    5.3     0.14077367       -54.9971523172  2.85E-04
    45 Broy./Diag. 0.10E+00    5.3     0.22641221       -54.9963388985  8.13E-04
    46 Broy./Diag. 0.10E+00    5.3     0.30644791       -54.9937829846  2.56E-03
    47 Broy./Diag. 0.10E+00    5.5     0.41561677       -54.9870344500  6.75E-03
    48 Broy./Diag. 0.10E+00    5.3     0.52346941       -54.9730333125  1.40E-02
    49 Broy./Diag. 0.10E+00    5.3     0.45117007       -54.9528824221  2.02E-02
    50 Broy./Diag. 0.10E+00    5.4     0.29990595       -54.9329879321  1.99E-02
    51 Broy./Diag. 0.10E+00    5.4     0.21000581       -54.9181755087  1.48E-02
    52 Broy./Diag. 0.10E+00    5.3     0.17252276       -54.9089151983  9.26E-03
    53 Broy./Diag. 0.10E+00    5.3     0.13070138       -54.9037406181  5.17E-03
    54 Broy./Diag. 0.10E+00    5.3     0.09523059       -54.9012587830  2.48E-03
    55 Broy./Diag. 0.10E+00    5.3     0.06846558       -54.9005940163  6.65E-04
    56 Broy./Diag. 0.10E+00    5.3     0.05190304       -54.9047348311 -4.14E-03
    57 Broy./Diag. 0.10E+00    5.3     0.05045066       -54.9258136735 -2.11E-02
    58 Broy./Diag. 0.10E+00    5.3     0.04462923       -54.9438950077 -1.81E-02
    59 Broy./Diag. 0.10E+00    5.3     0.06199420       -54.9971620437 -5.33E-02
    60 Broy./Diag. 0.10E+00    5.3     0.11759670       -55.1185018199 -1.21E-01
    61 Broy./Diag. 0.10E+00    5.3     0.22841453       -55.3158971743 -1.97E-01
    62 Broy./Diag. 0.10E+00    5.3     0.36987566       -55.2521952986  6.37E-02
    63 Broy./Diag. 0.10E+00    5.3     0.28222356       -55.0971014058  1.55E-01
    64 Broy./Diag. 0.10E+00    5.4     0.09828282       -54.9713641691  1.26E-01
    65 Broy./Diag. 0.10E+00    5.3     0.06163649       -54.9594375744  1.19E-02
    66 Broy./Diag. 0.10E+00    5.3     0.04008727       -54.9598429272 -4.05E-04
    67 Broy./Diag. 0.10E+00    5.3     0.23480552       -54.8958215767  6.40E-02
    68 Broy./Diag. 0.10E+00    5.3     0.16419957       -54.8260138601  6.98E-02
    69 Broy./Diag. 0.10E+00    5.3     0.16233543       -54.7660753160  5.99E-02
    70 Broy./Diag. 0.10E+00    5.3     0.07698775       -54.8138952939 -4.78E-02
    71 Broy./Diag. 0.10E+00    5.3     0.32894107       -54.7293945352  8.45E-02
    72 Broy./Diag. 0.10E+00    5.3     0.28168755       -54.7636570279 -3.43E-02
    73 Broy./Diag. 0.10E+00    5.3     0.27690239       -54.8702538194 -1.07E-01
    74 Broy./Diag. 0.10E+00    5.4     0.11402112       -55.4152411348 -5.45E-01
    75 Broy./Diag. 0.10E+00    5.3     0.30006494       -55.6276379564 -2.12E-01
    76 Broy./Diag. 0.10E+00    5.3     0.05697128       -55.6631340504 -3.55E-02
    77 Broy./Diag. 0.10E+00    5.3     0.33872891       -55.6717140262 -8.58E-03
    78 Broy./Diag. 0.10E+00    5.3     0.45596359       -55.4953450520  1.76E-01
    79 Broy./Diag. 0.10E+00    5.3     0.22847806       -55.4839054077  1.14E-02
    80 Broy./Diag. 0.10E+00    5.4     0.37485408       -55.4158918842  6.80E-02
    81 Broy./Diag. 0.10E+00    5.3     0.33929199       -55.1503928715  2.65E-01
    82 Broy./Diag. 0.10E+00    5.3     0.21434166       -55.0856160011  6.48E-02
    83 Broy./Diag. 0.10E+00    5.3     0.13673760       -55.0731669044  1.24E-02
    84 Broy./Diag. 0.10E+00    5.3     0.07911581       -55.0155278008  5.76E-02
    85 Broy./Diag. 0.10E+00    5.4     0.03828787       -55.0119577606  3.57E-03
    86 Broy./Diag. 0.10E+00    5.3     0.01733305       -55.0009421650  1.10E-02
    87 Broy./Diag. 0.10E+00    5.3     0.04543899       -55.0036792475 -2.74E-03
    88 Broy./Diag. 0.10E+00    5.3     0.02239561       -55.0147612485 -1.11E-02
    89 Broy./Diag. 0.10E+00    5.4     0.05093460       -55.0261978441 -1.14E-02
    90 Broy./Diag. 0.10E+00    5.3     0.04587403       -55.0356173848 -9.42E-03
    91 Broy./Diag. 0.10E+00    5.4     0.01223115       -55.0363906781 -7.73E-04
    92 Broy./Diag. 0.10E+00    5.3     0.02325366       -55.0246880355  1.17E-02
    93 Broy./Diag. 0.10E+00    5.3     0.04723406       -55.0172556888  7.43E-03
    94 Broy./Diag. 0.10E+00    5.3     0.05802253       -55.0099234935  7.33E-03
    95 Broy./Diag. 0.10E+00    5.3     0.12917022       -55.0010632764  8.86E-03
    96 Broy./Diag. 0.10E+00    5.3     0.18654782       -55.0026545709 -1.59E-03
    97 Broy./Diag. 0.10E+00    5.4     0.29689950       -55.0049414715 -2.29E-03
    98 Broy./Diag. 0.10E+00    5.3     0.46312238       -54.9981473647  6.79E-03
    99 Broy./Diag. 0.10E+00    5.3     0.51199620       -54.9824706681  1.57E-02
   100 Broy./Diag. 0.10E+00    5.3     0.37575616       -54.9633942740  1.91E-02
   101 Broy./Diag. 0.10E+00    5.3     0.29122313       -54.9441661762  1.92E-02
   102 Broy./Diag. 0.10E+00    5.4     0.25673049       -54.9337587100  1.04E-02
   103 Broy./Diag. 0.10E+00    5.4     0.19938299       -54.9246433039  9.12E-03
   104 Broy./Diag. 0.10E+00    5.3     0.13840752       -54.9160782697  8.57E-03
   105 Broy./Diag. 0.10E+00    5.3     0.09604905       -54.9114592348  4.62E-03
   106 Broy./Diag. 0.10E+00    5.3     0.11146696       -54.9161203766 -4.66E-03
   107 Broy./Diag. 0.10E+00    5.3     0.11380223       -54.9232753544 -7.15E-03
   108 Broy./Diag. 0.10E+00    5.3     0.14654743       -54.9328243951 -9.55E-03
   109 Broy./Diag. 0.10E+00    5.3     0.21271110       -54.9472278311 -1.44E-02
   110 Broy./Diag. 0.10E+00    5.3     0.27765244       -54.9619161080 -1.47E-02
   111 Broy./Diag. 0.10E+00    5.3     0.29135481       -54.9844760983 -2.26E-02
   112 Broy./Diag. 0.10E+00    5.3     0.16284001       -54.9864160064 -1.94E-03
   113 Broy./Diag. 0.10E+00    5.3     0.14495901       -54.9748800446  1.15E-02
   114 Broy./Diag. 0.10E+00    5.4     0.04392769       -54.9711465903  3.73E-03
   115 Broy./Diag. 0.10E+00    5.3     0.05797455       -55.0008949412 -2.97E-02
   116 Broy./Diag. 0.10E+00    5.3     0.03465187       -55.0373720417 -3.65E-02
   117 Broy./Diag. 0.10E+00    5.3     0.20883754       -55.0322381138  5.13E-03
   118 Broy./Diag. 0.10E+00    5.3     0.08561615       -55.0324858848 -2.48E-04
   119 Broy./Diag. 0.10E+00    5.3     0.12766404       -55.0247472722  7.74E-03
   120 Broy./Diag. 0.10E+00    5.3     0.15770157       -55.0457213815 -2.10E-02
   121 Broy./Diag. 0.10E+00    5.4     0.02032801       -55.0656070248 -1.99E-02
   122 Broy./Diag. 0.10E+00    5.3     0.01253772       -55.0658656068 -2.59E-04
   123 Broy./Diag. 0.10E+00    5.3     0.10542174       -55.0535829641  1.23E-02
   124 Broy./Diag. 0.10E+00    5.3     0.03191937       -55.0354946335  1.81E-02
   125 Broy./Diag. 0.10E+00    5.4     0.03999269       -55.0182344539  1.73E-02
   126 Broy./Diag. 0.10E+00    5.3     0.02816341       -55.0110797685  7.15E-03
   127 Broy./Diag. 0.10E+00    5.3     0.03605368       -55.0093527005  1.73E-03
   128 Broy./Diag. 0.10E+00    5.3     0.03727798       -55.0105322871 -1.18E-03
   129 Broy./Diag. 0.10E+00    5.4     0.06303545       -55.0093474946  1.18E-03
   130 Broy./Diag. 0.10E+00    5.3     0.01886367       -55.0110804847 -1.73E-03
   131 Broy./Diag. 0.10E+00    5.3     0.01910105       -55.0115978555 -5.17E-04
   132 Broy./Diag. 0.10E+00    5.3     0.01987098       -55.0104740078  1.12E-03
   133 Broy./Diag. 0.10E+00    5.3     0.03190308       -55.0095952858  8.79E-04
   134 Broy./Diag. 0.10E+00    5.3     0.05892398       -55.0092365985  3.59E-04
   135 Broy./Diag. 0.10E+00    5.3     0.09848084       -55.0100433804 -8.07E-04
   136 Broy./Diag. 0.10E+00    5.3     0.15991720       -55.0108601737 -8.17E-04
   137 Broy./Diag. 0.10E+00    5.3     0.23253208       -55.0112259494 -3.66E-04
   138 Broy./Diag. 0.10E+00    5.3     0.31781310       -55.0092489486  1.98E-03
   139 Broy./Diag. 0.10E+00    5.3     0.38543759       -55.0011494525  8.10E-03
   140 Broy./Diag. 0.10E+00    5.4     0.50779866       -54.9807873151  2.04E-02
   141 Broy./Diag. 0.10E+00    5.3     0.44668448       -54.9617280177  1.91E-02
   142 Broy./Diag. 0.10E+00    5.4     0.31105949       -54.9415044427  2.02E-02
   143 Broy./Diag. 0.10E+00    5.3     0.18841921       -54.9267689172  1.47E-02
   144 Broy./Diag. 0.10E+00    5.3     0.15318504       -54.9184642444  8.30E-03
   145 Broy./Diag. 0.10E+00    5.3     0.12044625       -54.9156792355  2.79E-03
   146 Broy./Diag. 0.10E+00    5.3     0.11122943       -54.9189271757 -3.25E-03
   147 Broy./Diag. 0.10E+00    5.3     0.11912224       -54.9302801268 -1.14E-02
   148 Broy./Diag. 0.10E+00    5.3     0.12712601       -54.9526384122 -2.24E-02
   149 Broy./Diag. 0.10E+00    5.3     0.17961980       -54.9737238878 -2.11E-02
   150 Broy./Diag. 0.10E+00    5.4     0.28940636       -55.0066509202 -3.29E-02
   151 Broy./Diag. 0.10E+00    5.3     0.29699786       -55.0175703206 -1.09E-02
   152 Broy./Diag. 0.10E+00    5.3     0.18377809       -54.9867226503  3.08E-02
   153 Broy./Diag. 0.10E+00    5.3     0.11063243       -54.9448491875  4.19E-02
   154 Broy./Diag. 0.10E+00    5.3     0.06091760       -54.9367521557  8.10E-03
   155 Broy./Diag. 0.10E+00    5.3     0.07836483       -54.9097827904  2.70E-02
   156 Broy./Diag. 0.10E+00    5.3     0.07459494       -54.9380576711 -2.83E-02
   157 Broy./Diag. 0.10E+00    5.3     0.00828127       -54.9743484860 -3.63E-02
   158 Broy./Diag. 0.10E+00    5.3     0.08990200       -55.0019374179 -2.76E-02
   159 Broy./Diag. 0.10E+00    5.4     0.03398537       -55.0179825895 -1.60E-02
   160 Broy./Diag. 0.10E+00    5.3     0.08445074       -55.0453550104 -2.74E-02
   161 Broy./Diag. 0.10E+00    5.3     0.11596173       -55.0734204634 -2.81E-02
   162 Broy./Diag. 0.10E+00    5.3     0.17876378       -55.0800341212 -6.61E-03
   163 Broy./Diag. 0.10E+00    5.3     0.32030646       -55.0804458852 -4.12E-04
   164 Broy./Diag. 0.10E+00    5.3     0.46097401       -55.0808016210 -3.56E-04
   165 Broy./Diag. 0.10E+00    5.3     0.41689119       -55.0718177123  8.98E-03
   166 Broy./Diag. 0.10E+00    5.3     0.25751031       -55.0544400101  1.74E-02
   167 Broy./Diag. 0.10E+00    5.3     0.24043117       -55.0287663537  2.57E-02
   168 Broy./Diag. 0.10E+00    5.3     0.21432085       -55.0077300657  2.10E-02
   169 Broy./Diag. 0.10E+00    5.3     0.14028565       -54.9982394600  9.49E-03
   170 Broy./Diag. 0.10E+00    5.3     0.19243569       -54.9921616004  6.08E-03
   171 Broy./Diag. 0.10E+00    5.3     0.31974959       -54.9818763301  1.03E-02
   172 Broy./Diag. 0.10E+00    5.3     0.34435744       -54.9788697972  3.01E-03
   173 Broy./Diag. 0.10E+00    5.3     0.22489343       -54.9855053866 -6.64E-03
   174 Broy./Diag. 0.10E+00    5.3     0.15115422       -54.9952286167 -9.72E-03
   175 Broy./Diag. 0.10E+00    5.4     0.03009126       -55.0155269315 -2.03E-02
[...]
   448 Broy./Diag. 0.10E+00    5.3     0.02939677       -55.0080690482  2.82E-03
   449 Broy./Diag. 0.10E+00    5.3     0.03102021       -55.0056527581  2.42E-03
   450 Broy./Diag. 0.10E+00    5.3     0.01002058       -55.0068146040 -1.16E-03
   451 Broy./Diag. 0.10E+00    5.4     0.01889915       -55.0099508048 -3.14E-03
   452 Broy./Diag. 0.10E+00    5.3     0.00120861       -55.0078148075  2.14E-03
   453 Broy./Diag. 0.10E+00    5.3     0.03692524       -55.0035190463  4.30E-03
   454 Broy./Diag. 0.10E+00    5.4     0.05426214       -55.0012236658  2.30E-03
   455 Broy./Diag. 0.10E+00    5.3     0.07159939       -55.0001465705  1.08E-03
   456 Broy./Diag. 0.10E+00    5.3     0.12991224       -54.9993214401  8.25E-04
   457 Broy./Diag. 0.10E+00    5.3     0.26418634       -54.9979211067  1.40E-03
   458 Broy./Diag. 0.10E+00    5.4     0.44210220       -54.9933038817  4.62E-03
   459 Broy./Diag. 0.10E+00    5.3     0.51568443       -54.9821523540  1.12E-02
   460 Broy./Diag. 0.10E+00    5.3     0.39990518       -54.9679510652  1.42E-02
   461 Broy./Diag. 0.10E+00    5.3     0.34842369       -54.9490848850  1.89E-02
   462 Broy./Diag. 0.10E+00    5.3     0.29255872       -54.9310579328  1.80E-02
   463 Broy./Diag. 0.10E+00    5.3     0.22145145       -54.9176884295  1.34E-02
   464 Broy./Diag. 0.10E+00    5.3     0.18984994       -54.9104138971  7.27E-03
   465 Broy./Diag. 0.10E+00    5.3     0.16490567       -54.9069181918  3.50E-03
   466 Broy./Diag. 0.10E+00    5.3     0.13894906       -54.9034937343  3.42E-03
   467 Broy./Diag. 0.10E+00    5.3     0.12656898       -54.8977849342  5.71E-03
   468 Broy./Diag. 0.10E+00    5.3     0.14135374       -54.8869538405  1.08E-02
   469 Broy./Diag. 0.10E+00    5.3     0.18063555       -54.8699879552  1.70E-02
   470 Broy./Diag. 0.10E+00    5.3     0.21051356       -54.8520604765  1.79E-02
   471 Broy./Diag. 0.10E+00    5.3     0.18343046       -54.8752676976 -2.32E-02
   472 Broy./Diag. 0.10E+00    5.3     0.10303103       -54.9928331062 -1.18E-01
   473 Broy./Diag. 0.10E+00    5.3     0.12557761       -55.0033244145 -1.05E-02

 *** WARNING in pw/ps_wavelet_methods.F:238 :: Density non-zero on the ***
 *** edges of the unit cell: wrong results in WAVELET solver           ***

   474 Broy./Diag. 0.10E+00    5.3     0.10567211       -55.0946118036 -9.13E-02

 *** WARNING in pw/ps_wavelet_methods.F:238 :: Density non-zero on the ***
 *** edges of the unit cell: wrong results in WAVELET solver           ***

   475 Broy./Diag. 0.10E+00    5.4     0.04819147       -55.1659140211 -7.13E-02
   476 Broy./Diag. 0.10E+00    5.3     0.32345804       -55.2480913114 -8.22E-02

 *** WARNING in pw/ps_wavelet_methods.F:238 :: Density non-zero on the ***
 *** edges of the unit cell: wrong results in WAVELET solver           ***

   477 Broy./Diag. 0.10E+00    5.3     0.46286360       -55.2555549750 -7.46E-03

 *** WARNING in pw/ps_wavelet_methods.F:238 :: Density non-zero on the ***
 *** edges of the unit cell: wrong results in WAVELET solver           ***

   478 Broy./Diag. 0.10E+00    5.3     0.42208317       -55.2472652508  8.29E-03
   479 Broy./Diag. 0.10E+00    5.4     0.20972598       -55.2014585976  4.58E-02
   480 Broy./Diag. 0.10E+00    5.3     0.06322068       -55.1692871758  3.22E-02
   481 Broy./Diag. 0.10E+00    5.3     0.09057466       -55.2496536837 -8.04E-02

 *** WARNING in pw/ps_wavelet_methods.F:238 :: Density non-zero on the ***
 *** edges of the unit cell: wrong results in WAVELET solver           ***

   482 Broy./Diag. 0.10E+00    5.3     0.21790433       -55.3381664954 -8.85E-02

 *** WARNING in pw/ps_wavelet_methods.F:238 :: Density non-zero on the ***
 *** edges of the unit cell: wrong results in WAVELET solver           ***

   483 Broy./Diag. 0.10E+00    5.3     0.21432904       -55.4362633808 -9.81E-02

 *** WARNING in pw/ps_wavelet_methods.F:238 :: Density non-zero on the ***
 *** edges of the unit cell: wrong results in WAVELET solver           ***

   484 Broy./Diag. 0.10E+00    5.3     0.25798120       -55.4832913306 -4.70E-02

 *** WARNING in pw/ps_wavelet_methods.F:238 :: Density non-zero on the ***
 *** edges of the unit cell: wrong results in WAVELET solver           ***

   485 Broy./Diag. 0.10E+00    5.3     0.17116805       -55.6036541436 -1.20E-01

 *** WARNING in pw/ps_wavelet_methods.F:238 :: Density non-zero on the ***
 *** edges of the unit cell: wrong results in WAVELET solver           ***

   486 Broy./Diag. 0.10E+00    5.3     0.28429290       -55.7225199927 -1.19E-01

 *** WARNING in pw/ps_wavelet_methods.F:238 :: Density non-zero on the ***
 *** edges of the unit cell: wrong results in WAVELET solver           ***

   487 Broy./Diag. 0.10E+00    5.3     0.02395648       -55.6996889049  2.28E-02

 *** WARNING in pw/ps_wavelet_methods.F:238 :: Density non-zero on the ***
 *** edges of the unit cell: wrong results in WAVELET solver           ***

   488 Broy./Diag. 0.10E+00    5.3     0.21216310       -55.5526345499  1.47E-01

 *** WARNING in pw/ps_wavelet_methods.F:238 :: Density non-zero on the ***
 *** edges of the unit cell: wrong results in WAVELET solver           ***

   489 Broy./Diag. 0.10E+00    5.3     0.05836130       -55.3586081982  1.94E-01

 *** WARNING in pw/ps_wavelet_methods.F:238 :: Density non-zero on the ***
 *** edges of the unit cell: wrong results in WAVELET solver           ***

   490 Broy./Diag. 0.10E+00    5.3     0.02434350       -55.2145642557  1.44E-01

 *** WARNING in pw/ps_wavelet_methods.F:238 :: Density non-zero on the ***
 *** edges of the unit cell: wrong results in WAVELET solver           ***

   491 Broy./Diag. 0.10E+00    5.4     0.00730177       -55.1760765000  3.85E-02

 *** WARNING in pw/ps_wavelet_methods.F:238 :: Density non-zero on the ***
 *** edges of the unit cell: wrong results in WAVELET solver           ***

   492 Broy./Diag. 0.10E+00    5.4     0.03405163       -55.1415424837  3.45E-02

 *** WARNING in pw/ps_wavelet_methods.F:238 :: Density non-zero on the ***
 *** edges of the unit cell: wrong results in WAVELET solver           ***

   493 Broy./Diag. 0.10E+00    5.4     0.10215856       -55.0802751626  6.13E-02
   494 Broy./Diag. 0.10E+00    5.3     0.09672767       -55.0687112326  1.16E-02
   495 Broy./Diag. 0.10E+00    5.3     0.10570936       -55.0750948106 -6.38E-03
   496 Broy./Diag. 0.10E+00    5.3     0.08140103       -55.0908756843 -1.58E-02
   497 Broy./Diag. 0.10E+00    5.4     0.05037035       -55.0874118314  3.46E-03
   498 Broy./Diag. 0.10E+00    5.3     0.00299121       -55.0831510554  4.26E-03
   499 Broy./Diag. 0.10E+00    5.3     0.04433109       -55.0659102524  1.72E-02
   500 Broy./Diag. 0.10E+00    5.3     0.01357823       -55.0373347962  2.86E-02

  Leaving inner SCF loop after reaching   500 steps.


  Electronic density on regular grids:         -6.0229753154        1.9770246846
  Core density on regular grids:                8.0000000000       -0.0000000000
  Hard and soft densities (Lebedev):          -20.0302464222      -18.0530210779
  Total Rho_soft + Rho1_hard - Rho1_soft       -8.0002006597
  Total charge density (r-space):              -0.0002006597
  Total Rho_soft + Rho0_soft (g-space):        -0.0002006721

  Overlap energy of the core charge distribution:               0.00000008866015
  Self energy of the core charge distribution:                -49.21005070205399
  Core Hamiltonian energy:                                     -7.49350397322607
  Hartree energy:                                              17.76173764193966
  Exchange-correlation energy:                                 -2.11844631769285
  Hartree-Fock Exchange energy:                                -1.70798306050716

  GAPW| Exc from hard and soft atomic rho1:                    -3.24932669616465
  GAPW| local Eh = 1 center integrals:                         -9.01976177720017

  Total energy:                                               -55.03733479624509

 *******************************************************************************
 *   ___                                                                       *
 *  /   \                                                                      *
 * [ABORT]                                                                     *
 *  \___/     SCF run NOT converged. To continue the calculation regardless,   *
 *    |             please set the keyword IGNORE_CONVERGENCE_FAILURE.         *
 *  O/|                                                                        *
 * /| |                                                                        *
 * / \                                                            qs_scf.F:611 *
 *******************************************************************************


 ===== Routine Calling Stack ===== 

            3 scf_env_do_scf
            2 qs_energies
            1 CP2K

 *******************************************************************************
 *   ___                                                                       *
 *  /   \                                                                      *
 * [ABORT]                                                                     *
 *  \___/     SCF run NOT converged. To continue the calculation regardless,   *
 *    |             please set the keyword IGNORE_CONVERGENCE_FAILURE.         *
 *  O/|                                                                        *
 * /| |                                                                        *
 * / \                                                            qs_scf.F:611 *
 *******************************************************************************


 ===== Routine Calling Stack ===== 

            3 scf_env_do_scf
            2 qs_energies
            1 CP2K

 *******************************************************************************
 *   ___                                                                       *
 *  /   \                                                                      *
 * [ABORT]                                                                     *
 *  \___/     SCF run NOT converged. To continue the calculation regardless,   *
 *    |             please set the keyword IGNORE_CONVERGENCE_FAILURE.         *
 *  O/|                                                                        *
 * /| |                                                                        *
 * / \                                                            qs_scf.F:611 *
 *******************************************************************************


 ===== Routine Calling Stack ===== 

            3 scf_env_do_scf
            2 qs_energies
            1 CP2K

 *******************************************************************************
 *   ___                                                                       *
 *  /   \                                                                      *
 * [ABORT]                                                                     *
 *  \___/     SCF run NOT converged. To continue the calculation regardless,   *
 *    |             please set the keyword IGNORE_CONVERGENCE_FAILURE.         *
 *  O/|                                                                        *
 * /| |                                                                        *
 * / \                                                            qs_scf.F:611 *
 *******************************************************************************


 ===== Routine Calling Stack ===== 

            3 scf_env_do_scf
            2 qs_energies
            1 CP2K

 *******************************************************************************
 *   ___                                                                       *
 *  /   \                                                                      *
 * [ABORT]                                                                     *
 *  \___/     SCF run NOT converged. To continue the calculation regardless,   *
 *    |             please set the keyword IGNORE_CONVERGENCE_FAILURE.         *
 *  O/|                                                                        *
 * /| |                                                                        *
 * / \                                                            qs_scf.F:611 *
 *******************************************************************************


 ===== Routine Calling Stack ===== 

            3 scf_env_do_scf
            2 qs_energies
            1 CP2K

 *******************************************************************************
 *   ___                                                                       *
 *  /   \                                                                      *
 * [ABORT]                                                                     *
 *  \___/     SCF run NOT converged. To continue the calculation regardless,   *
 *    |             please set the keyword IGNORE_CONVERGENCE_FAILURE.         *
 *  O/|                                                                        *
 * /| |                                                                        *
 * / \                                                            qs_scf.F:611 *
 *******************************************************************************


 ===== Routine Calling Stack ===== 

            3 scf_env_do_scf
            2 qs_energies
            1 CP2K

 *******************************************************************************
 *   ___                                                                       *
 *  /   \                                                                      *
 * [ABORT]                                                                     *
 *  \___/     SCF run NOT converged. To continue the calculation regardless,   *
 *    |             please set the keyword IGNORE_CONVERGENCE_FAILURE.         *
 *  O/|                                                                        *
 * /| |                                                                        *
 * / \                                                            qs_scf.F:611 *
 *******************************************************************************


 ===== Routine Calling Stack ===== 

            3 scf_env_do_scf
            2 qs_energies
            1 CP2K

 *******************************************************************************
 *   ___                                                                       *
 *  /   \                                                                      *
 * [ABORT]                                                                     *
 *  \___/     SCF run NOT converged. To continue the calculation regardless,   *
 *    |             please set the keyword IGNORE_CONVERGENCE_FAILURE.         *
 *  O/|                                                                        *
 * /| |                                                                        *
 * / \                                                            qs_scf.F:611 *
 *******************************************************************************


 ===== Routine Calling Stack ===== 

            3 scf_env_do_scf
            2 qs_energies
            1 CP2K

 *******************************************************************************
 *   ___                                                                       *
 *  /   \                                                                      *
 * [ABORT]                                                                     *
 *  \___/     SCF run NOT converged. To continue the calculation regardless,   *
 *    |             please set the keyword IGNORE_CONVERGENCE_FAILURE.         *
 *  O/|                                                                        *
 * /| |                                                                        *
 * / \                                                            qs_scf.F:611 *
 *******************************************************************************


 ===== Routine Calling Stack ===== 

            3 scf_env_do_scf
            2 qs_energies
            1 CP2K

 *******************************************************************************
 *   ___                                                                       *
 *  /   \                                                                      *
 * [ABORT]                                                                     *
 *  \___/     SCF run NOT converged. To continue the calculation regardless,   *
 *    |             please set the keyword IGNORE_CONVERGENCE_FAILURE.         *
 *  O/|                                                                        *
 * /| |                                                                        *
 * / \                                                            qs_scf.F:611 *
 *******************************************************************************


 ===== Routine Calling Stack ===== 

            3 scf_env_do_scf
            2 qs_energies
            1 CP2K

 *******************************************************************************
 *   ___                                                                       *
 *  /   \                                                                      *
 * [ABORT]                                                                     *
 *  \___/     SCF run NOT converged. To continue the calculation regardless,   *
 *    |             please set the keyword IGNORE_CONVERGENCE_FAILURE.         *
 *  O/|                                                                        *
 * /| |                                                                        *
 * / \                                                            qs_scf.F:611 *
 *******************************************************************************


 ===== Routine Calling Stack ===== 

            3 scf_env_do_scf
            2 qs_energies
            1 CP2K

 *******************************************************************************
 *   ___                                                                       *
 *  /   \                                                                      *
 * [ABORT]                                                                     *
 *  \___/     SCF run NOT converged. To continue the calculation regardless,   *
 *    |             please set the keyword IGNORE_CONVERGENCE_FAILURE.         *
 *  O/|                                                                        *
 * /| |                                                                        *
 * / \                                                            qs_scf.F:611 *
 *******************************************************************************


 ===== Routine Calling Stack ===== 

            3 scf_env_do_scf
            2 qs_energies
            1 CP2K

 *******************************************************************************
 *   ___                                                                       *
 *  /   \                                                                      *
 * [ABORT]                                                                     *
 *  \___/     SCF run NOT converged. To continue the calculation regardless,   *
 *    |             please set the keyword IGNORE_CONVERGENCE_FAILURE.         *
 *  O/|                                                                        *
 * /| |                                                                        *
 * / \                                                            qs_scf.F:611 *
 *******************************************************************************


 ===== Routine Calling Stack ===== 

            3 scf_env_do_scf
            2 qs_energies
            1 CP2K
