 DBCSR| CPU Multiplication driver                                           BLAS (U)
 DBCSR| Multrec recursion limit                                              512 (U)
 DBCSR| Multiplication stack size                                           1000 (D)
 DBCSR| Maximum elements for images                                    UNLIMITED (U)
 DBCSR| Multiplicative factor virtual images                                   1 (U)
 DBCSR| Use multiplication densification                                       T (D)
 DBCSR| Multiplication size stacks                                             3 (U)
 DBCSR| Use memory pool for CPU allocation                                     F (U)
 DBCSR| Number of 3D layers                                               SINGLE (U)
 DBCSR| Use MPI memory allocation                                              F (U)
 DBCSR| Use RMA algorithm                                                      F (U)
 DBCSR| Use Communication thread                                               T (U)
 DBCSR| Communication thread load                                             75 (D)
 DBCSR| MPI: My process id                                                     0
 DBCSR| MPI: Number of processes                                              48
 DBCSR| OMP: Current number of threads                                         4
 DBCSR| OMP: Max number of threads                                             4
 DBCSR| Split modifier for TAS multiplication algorithm                  1.0E+00 (U)


  **** **** ******  **  PROGRAM STARTED AT               2025-03-18 22:48:07.958
 ***** ** ***  *** **   PROGRAM STARTED ON                          i03r03c06s01
 **    ****   ******    PROGRAM STARTED BY                               di38fab
 ***** **    ** ** **   PROGRAM PROCESS ID                               4097337
  **** **  *******  **  PROGRAM STARTED IN /hppfs/scratch/04/di38fab/05_MOL/W4-1
                                           1+ALK/li2/aug-cc-pVDZ/GW+BSE

 CP2K| version string:                 CP2K version 2025.1 (Development Version)
 CP2K| source code revision number:                                  git:d2e611a
 CP2K| cp2kflags: omp libint fftw3 libxc parallel scalapack max_contr=4         
 CP2K| is freely available from                            https://www.cp2k.org/
 CP2K| Program compiled at                       Thu 06 Mar 2025 05:09:20 PM CET
 CP2K| Program compiled on                                               login02
 CP2K| Program compiled for                                        Supermuc-foss
 CP2K| Data directory path                  /hppfs/work/pn36zo/di38fab/cp2k/data
 CP2K| Input file name                                                    GW.inp

 GLOBAL| Force Environment number                                              1
 GLOBAL| Basis set file name            /hppfs/scratch/04/di38fab/04_TMD/BASIS_A
 GLOBAL| Potential file name            /hppfs/work/pn36zo/di38fab/cp2k/data/ALL
 GLOBAL| MM Potential file name                                     MM_POTENTIAL
 GLOBAL| Coordinate file name                                      __STD_INPUT__
 GLOBAL| Method name                                                        CP2K
 GLOBAL| Project name                                                       MoS2
 GLOBAL| Run type                                                         ENERGY
 GLOBAL| FFT library                                                       FFTW3
 GLOBAL| Diagonalization library                                       ScaLAPACK
 GLOBAL| DGEMM library                                                      BLAS
 GLOBAL| Orthonormality check for eigenvectors                          DISABLED
 GLOBAL| Matrix multiplication library                                 ScaLAPACK
 GLOBAL| All-to-all communication in single precision                          F
 GLOBAL| FFTs using library dependent lengths                                  F
 GLOBAL| Grid backend                                                       AUTO
 GLOBAL| Global print level                                               MEDIUM
 GLOBAL| MPI I/O enabled                                                       T
 GLOBAL| Total number of message passing processes                            48
 GLOBAL| Number of threads for this process                                    4
 GLOBAL| This output is from process                                           0
 GLOBAL| OpenMP stack size per thread (OMP_STACKSIZE)                    default
 GLOBAL| CPU model name             Intel(R) Xeon(R) Platinum 8174 CPU @ 3.10GHz

 MEMORY| system memory details [Kb]
 MEMORY|                        rank 0           min           max       average
 MEMORY| MemTotal             98436664      98436660      98436664      98436662
 MEMORY| MemFree              84209848      83744768      84209848      84054438
 MEMORY| Buffers                     0             0             0             0
 MEMORY| Cached                2389216       2387660       2438180       2408897
 MEMORY| Slab                  1210244       1210244       1255368       1233295
 MEMORY| SReclaimable           262060        262060        284844        272602
 MEMORY| MemLikelyFree        86861124      86467792      86861124      86735937


 *** Fundamental physical constants (SI units) ***

 *** Literature: B. J. Mohr and B. N. Taylor,
 ***             CODATA recommended values of the fundamental physical
 ***             constants: 2006, Web Version 5.1
 ***             http://physics.nist.gov/constants

 Speed of light in vacuum [m/s]                             2.99792458000000E+08
 Magnetic constant or permeability of vacuum [N/A**2]       1.25663706143592E-06
 Electric constant or permittivity of vacuum [F/m]          8.85418781762039E-12
 Planck constant (h) [J*s]                                  6.62606896000000E-34
 Planck constant (h-bar) [J*s]                              1.05457162825177E-34
 Elementary charge [C]                                      1.60217648700000E-19
 Electron mass [kg]                                         9.10938215000000E-31
 Electron g factor [ ]                                     -2.00231930436220E+00
 Proton mass [kg]                                           1.67262163700000E-27
 Fine-structure constant                                    7.29735253760000E-03
 Rydberg constant [1/m]                                     1.09737315685270E+07
 Avogadro constant [1/mol]                                  6.02214179000000E+23
 Boltzmann constant [J/K]                                   1.38065040000000E-23
 Atomic mass unit [kg]                                      1.66053878200000E-27
 Bohr radius [m]                                            5.29177208590000E-11

 *** Conversion factors ***

 [u] -> [a.u.]                                              1.82288848426455E+03
 [Angstrom] -> [Bohr] = [a.u.]                              1.88972613288564E+00
 [a.u.] = [Bohr] -> [Angstrom]                              5.29177208590000E-01
 [a.u.] -> [s]                                              2.41888432650478E-17
 [a.u.] -> [fs]                                             2.41888432650478E-02
 [a.u.] -> [J]                                              4.35974393937059E-18
 [a.u.] -> [N]                                              8.23872205491840E-08
 [a.u.] -> [K]                                              3.15774647902944E+05
 [a.u.] -> [kJ/mol]                                         2.62549961709828E+03
 [a.u.] -> [kcal/mol]                                       6.27509468713739E+02
 [a.u.] -> [Pa]                                             2.94210107994716E+13
 [a.u.] -> [bar]                                            2.94210107994716E+08
 [a.u.] -> [atm]                                            2.90362800883016E+08
 [a.u.] -> [eV]                                             2.72113838565563E+01
 [a.u.] -> [Hz]                                             6.57968392072181E+15
 [a.u.] -> [1/cm] (wave numbers)                            2.19474631370540E+05
 [a.u./Bohr**2] -> [1/cm]                                   5.14048714338585E+03
 

 CELL_TOP| Volume [angstrom^3]:                                     27000.000000
 CELL_TOP| Vector a [angstrom    30.000     0.000     0.000   |a| =    30.000000
 CELL_TOP| Vector b [angstrom     0.000    30.000     0.000   |b| =    30.000000
 CELL_TOP| Vector c [angstrom     0.000     0.000    30.000   |c| =    30.000000
 CELL_TOP| Angle (b,c), alpha [degree]:                                90.000000
 CELL_TOP| Angle (a,c), beta  [degree]:                                90.000000
 CELL_TOP| Angle (a,b), gamma [degree]:                                90.000000
 CELL_TOP| Numerically orthorhombic:                                         YES
 CELL_TOP| Periodicity                                                      NONE

 GENERATE|  Preliminary Number of Bonds generated:                             0
 GENERATE|  Achieved consistency in connectivity generation.

 CELL| Volume [angstrom^3]:                                         27000.000000
 CELL| Vector a [angstrom]:      30.000     0.000     0.000   |a| =    30.000000
 CELL| Vector b [angstrom]:       0.000    30.000     0.000   |b| =    30.000000
 CELL| Vector c [angstrom]:       0.000     0.000    30.000   |c| =    30.000000
 CELL| Angle (b,c), alpha [degree]:                                    90.000000
 CELL| Angle (a,c), beta  [degree]:                                    90.000000
 CELL| Angle (a,b), gamma [degree]:                                    90.000000
 CELL| Numerically orthorhombic:                                             YES
 CELL| Periodicity                                                          NONE

 CELL_REF| Volume [angstrom^3]:                                     27000.000000
 CELL_REF| Vector a [angstrom    30.000     0.000     0.000   |a| =    30.000000
 CELL_REF| Vector b [angstrom     0.000    30.000     0.000   |b| =    30.000000
 CELL_REF| Vector c [angstrom     0.000     0.000    30.000   |c| =    30.000000
 CELL_REF| Angle (b,c), alpha [degree]:                                90.000000
 CELL_REF| Angle (a,c), beta  [degree]:                                90.000000
 CELL_REF| Angle (a,b), gamma [degree]:                                90.000000
 CELL_REF| Numerically orthorhombic:                                         YES
 CELL_REF| Periodicity                                                      NONE

 *******************************************************************************
 *******************************************************************************
 **                                                                           **
 **     #####                         ##              ##                      **
 **    ##   ##            ##          ##              ##                      **
 **   ##     ##                       ##            ######                    **
 **   ##     ##  ##   ##  ##   #####  ##  ##   ####   ##    #####    #####    **
 **   ##     ##  ##   ##  ##  ##      ## ##   ##      ##   ##   ##  ##   ##   **
 **   ##  ## ##  ##   ##  ##  ##      ####     ###    ##   ######   ######    **
 **    ##  ###   ##   ##  ##  ##      ## ##      ##   ##   ##       ##        **
 **     #######   #####   ##   #####  ##  ##  ####    ##    #####   ##        **
 **           ##                                                    ##        **
 **                                                                           **
 **                                                ... make the atoms dance   **
 **                                                                           **
 **            Copyright (C) by CP2K developers group (2000-2025)             **
 **                      J. Chem. Phys. 152, 194103 (2020)                    **
 **                                                                           **
 *******************************************************************************

 DFT| Spin restricted Kohn-Sham (RKS) calculation                            RKS
 DFT| Multiplicity                                                             1
 DFT| Number of spin states                                                    1
 DFT| Charge                                                                   0
 DFT| Self-interaction correction (SIC)                                       NO
 DFT| Cutoffs: density                                              1.000000E-10
 DFT|          gradient                                             1.000000E-10
 DFT|          tau                                                  1.000000E-10
 DFT|          cutoff_smoothing_range                               0.000000E+00
 DFT| XC density smoothing                                                  NONE
 DFT| XC derivatives                                                          PW

 FUNCTIONAL| PBE:
 FUNCTIONAL| J.P.Perdew, K.Burke, M.Ernzerhof, Phys. Rev. Letter, vol. 77, n 18,
 FUNCTIONAL|  pp. 3865-3868, (1996)sx=0.750sc=1.000{spin unpolarized}           


 QS| Method:                                                                GAPW
 QS| Density plane wave grid type                        NON-SPHERICAL FULLSPACE
 QS| Number of grid levels:                                                    4
 QS| Density cutoff [a.u.]:                                                250.0
 QS| Multi grid cutoff [a.u.]: 1) grid level                               250.0
 QS|                           2) grid level                                83.3
 QS|                           3) grid level                                27.8
 QS|                           4) grid level                                 9.3
 QS| Grid level progression factor:                                          3.0
 QS| Relative density cutoff [a.u.]:                                        50.0
 QS| Interaction thresholds: eps_pgf_orb:                                1.0E-12
 QS|                         eps_filter_matrix:                          0.0E+00
 QS|                         eps_core_charge:                            1.0E-14
 QS|                         eps_rho_gspace:                             1.0E-12
 QS|                         eps_rho_rspace:                             1.0E-12
 QS|                         eps_gvg_rspace:                             1.0E-06
 QS|                         eps_ppl:                                    1.0E-02
 QS|                         eps_ppnl:                                   1.0E-08
 QS| GAPW|      One center basis from orbital basis primitives
 QS| GAPW|                   eps_fit:                                    1.0E-04
 QS| GAPW|                   eps_iso:                                    1.0E-12
 QS| GAPW|                   eps_svd:                                    1.0E-08
 QS| GAPW|                   eps_cpc:                                    1.0E-12
 QS| GAPW|   atom-r-grid: quadrature:                                     GC_LOG
 QS| GAPW|      atom-s-grid:  max l :                                          4
 QS| GAPW|      max_l_rho0 :                                                   2


 ATOMIC KIND INFORMATION

  1. Atomic kind: li                                    Number of atoms:       2

     Orbital Basis Set                                               aug-cc-pVDZ

       Number of orbital shell sets:                                           6
       Number of orbital shells:                                               9
       Number of primitive Cartesian functions:                               17
       Number of Cartesian basis functions:                                   25
       Number of spherical basis functions:                                   23
       Norm type:                                                              2

       Normalised Cartesian orbitals:

                        Set   Shell   Orbital            Exponent    Coefficient

                          1       1    1px               0.005800       0.002282
                          1       1    1py               0.005800       0.002282
                          1       1    1pz               0.005800       0.002282

                          2       1    1s                0.008600       0.020127

                          3       1    1px               1.534000       0.055444
                                                         0.274900       0.039469
                                                         0.073620       0.027351
                                                         0.024030       0.006857
                          3       1    1py               1.534000       0.055444
                                                         0.274900       0.039469
                                                         0.073620       0.027351
                                                         0.024030       0.006857
                          3       1    1pz               1.534000       0.055444
                                                         0.274900       0.039469
                                                         0.073620       0.027351
                                                         0.024030       0.006857

                          3       2    2px               1.534000       0.000000
                                                         0.274900       0.000000
                                                         0.073620       0.000000
                                                         0.024030       0.013486
                          3       2    2py               1.534000       0.000000
                                                         0.274900       0.000000
                                                         0.073620       0.000000
                                                         0.024030       0.013486
                          3       2    2pz               1.534000       0.000000
                                                         0.274900       0.000000
                                                         0.073620       0.000000
                                                         0.024030       0.013486

                          4       1    1s             1469.000000       0.129540
                                                       220.500000       0.240287
                                                        50.260000       0.399171
                                                        14.240000       0.570408
                                                         4.581000       0.631093
                                                         1.580000       0.455113
                                                         0.564000       0.127452
                                                         0.073450       0.000981
                                                         0.028050      -0.000155

                          4       2    2s             1469.000000      -0.020294
                                                       220.500000      -0.037642
                                                        50.260000      -0.063082
                                                        14.240000      -0.092379
                                                         4.581000      -0.109133
                                                         1.580000      -0.096431
                                                         0.564000      -0.063259
                                                         0.073450       0.057829
                                                         0.028050       0.025287

                          4       3    3s             1469.000000       0.000000
                                                       220.500000       0.000000
                                                        50.260000       0.000000
                                                        14.240000       0.000000
                                                         4.581000       0.000000
                                                         1.580000       0.000000
                                                         0.564000       0.000000
                                                         0.073450       0.000000
                                                         0.028050       0.048849

                          5       1    1dx2              0.073300       0.016996
                          5       1    1dxy              0.073300       0.029438
                          5       1    1dxz              0.073300       0.029438
                          5       1    1dy2              0.073300       0.016996
                          5       1    1dyz              0.073300       0.029438
                          5       1    1dz2              0.073300       0.016996

                          6       1    1dx2              0.114400       0.037039
                          6       1    1dxy              0.114400       0.064153
                          6       1    1dxz              0.114400       0.064153
                          6       1    1dy2              0.114400       0.037039
                          6       1    1dyz              0.114400       0.064153
                          6       1    1dz2              0.114400       0.037039

     RI Auxiliary Basis Set                                    aug-cc-pV5Z-RIFIT

       Number of orbital shell sets:                                          46
       Number of orbital shells:                                              46
       Number of primitive Cartesian functions:                               46
       Number of Cartesian basis functions:                                  371
       Number of spherical basis functions:                                  242
       Norm type:                                                              2

       Normalised Cartesian orbitals:

                        Set   Shell   Orbital            Exponent    Coefficient

                          1       1    1s                0.030479       0.051989

                          2       1    1px               0.045175       0.029687
                          2       1    1py               0.045175       0.029687
                          2       1    1pz               0.045175       0.029687

                          3       1    1dx2              0.048718       0.008315
                          3       1    1dxy              0.048718       0.014402
                          3       1    1dxz              0.048718       0.014402
                          3       1    1dy2              0.048718       0.008315
                          3       1    1dyz              0.048718       0.014402
                          3       1    1dz2              0.048718       0.008315

                          4       1    1s                0.064288       0.090993

                          5       1    1fx3              0.065213       0.003164
                          5       1    1fx2y             0.065213       0.007075
                          5       1    1fx2z             0.065213       0.007075
                          5       1    1fxy2             0.065213       0.007075
                          5       1    1fxyz             0.065213       0.012253
                          5       1    1fxz2             0.065213       0.007075
                          5       1    1fy3              0.065213       0.003164
                          5       1    1fy2z             0.065213       0.007075
                          5       1    1fyz2             0.065213       0.007075
                          5       1    1fz3              0.065213       0.003164

                          6       1    1px               0.072777       0.053881
                          6       1    1py               0.072777       0.053881
                          6       1    1pz               0.072777       0.053881

                          7       1    1gx4              0.099854       0.001971
                          7       1    1gx3y             0.099854       0.005215
                          7       1    1gx3z             0.099854       0.005215
                          7       1    1gx2y2            0.099854       0.006732
                          7       1    1gx2yz            0.099854       0.011661
                          7       1    1gx2z2            0.099854       0.006732
                          7       1    1gxy3             0.099854       0.005215
                          7       1    1gxy2z            0.099854       0.011661
                          7       1    1gxyz2            0.099854       0.011661
                          7       1    1gxz3             0.099854       0.005215
                          7       1    1gy4              0.099854       0.001971
                          7       1    1gy3z             0.099854       0.005215
                          7       1    1gy2z2            0.099854       0.006732
                          7       1    1gyz3             0.099854       0.005215
                          7       1    1gz4              0.099854       0.001971

                          8       1    1dx2              0.101078       0.029823
                          8       1    1dxy              0.101078       0.051656
                          8       1    1dxz              0.101078       0.051656
                          8       1    1dy2              0.101078       0.029823
                          8       1    1dyz              0.101078       0.051656
                          8       1    1dz2              0.101078       0.029823

                          9       1    1px               0.121261       0.101998
                          9       1    1py               0.121261       0.101998
                          9       1    1pz               0.121261       0.101998

                         10       1    1s                0.123532       0.148506

                         11       1    1fx3              0.156013       0.022520
                         11       1    1fx2y             0.156013       0.050356
                         11       1    1fx2z             0.156013       0.050356
                         11       1    1fxy2             0.156013       0.050356
                         11       1    1fxyz             0.156013       0.087219
                         11       1    1fxz2             0.156013       0.050356
                         11       1    1fy3              0.156013       0.022520
                         11       1    1fy2z             0.156013       0.050356
                         11       1    1fyz2             0.156013       0.050356
                         11       1    1fz3              0.156013       0.022520

                         12       1    1hx5              0.161413       0.001978
                         12       1    1hx4y             0.161413       0.005933
                         12       1    1hx4z             0.161413       0.005933
                         12       1    1hx3y2            0.161413       0.009063
                         12       1    1hx3yz            0.161413       0.015697
                         12       1    1hx3z2            0.161413       0.009063
                         12       1    1hx2y3            0.161413       0.009063
                         12       1    1hx2y2z           0.161413       0.020265
                         12       1    1hx2yz2           0.161413       0.020265
                         12       1    1hx2z3            0.161413       0.009063
                         12       1    1hxy4             0.161413       0.005933
                         12       1    1hxy3z            0.161413       0.015697
                         12       1    1hxy2z2           0.161413       0.020265
                         12       1    1hxyz3            0.161413       0.015697
                         12       1    1hxz4             0.161413       0.005933
                         12       1    1hy5              0.161413       0.001978
                         12       1    1hy4z             0.161413       0.005933
                         12       1    1hy3z2            0.161413       0.009063
                         12       1    1hy2z3            0.161413       0.009063
                         12       1    1hyz4             0.161413       0.005933
                         12       1    1hz5              0.161413       0.001978

                         13       1    1dx2              0.173452       0.076731
                         13       1    1dxy              0.173452       0.132903
                         13       1    1dxz              0.173452       0.132903
                         13       1    1dy2              0.173452       0.076731
                         13       1    1dyz              0.173452       0.132903
                         13       1    1dz2              0.173452       0.076731

                         14       1    1gx4              0.196188       0.012627
                         14       1    1gx3y             0.196188       0.033407
                         14       1    1gx3z             0.196188       0.033407
                         14       1    1gx2y2            0.196188       0.043128
                         14       1    1gx2yz            0.196188       0.074700
                         14       1    1gx2z2            0.196188       0.043128
                         14       1    1gxy3             0.196188       0.033407
                         14       1    1gxy2z            0.196188       0.074700
                         14       1    1gxyz2            0.196188       0.074700
                         14       1    1gxz3             0.196188       0.033407
                         14       1    1gy4              0.196188       0.012627
                         14       1    1gy3z             0.196188       0.033407
                         14       1    1gy2z2            0.196188       0.043128
                         14       1    1gyz3             0.196188       0.033407
                         14       1    1gz4              0.196188       0.012627

                         15       1    1px               0.223276       0.218772
                         15       1    1py               0.223276       0.218772
                         15       1    1pz               0.223276       0.218772

                         16       1    1s                0.246901       0.249633

                         17       1    1fx3              0.259280       0.070621
                         17       1    1fx2y             0.259280       0.157914
                         17       1    1fx2z             0.259280       0.157914
                         17       1    1fxy2             0.259280       0.157914
                         17       1    1fxyz             0.259280       0.273515
                         17       1    1fxz2             0.259280       0.157914
                         17       1    1fy3              0.259280       0.070621
                         17       1    1fy2z             0.259280       0.157914
                         17       1    1fyz2             0.259280       0.157914
                         17       1    1fz3              0.259280       0.070621

                         18       1    1ix6              0.339630       0.007797
                         18       1    1ix5y             0.339630       0.025861
                         18       1    1ix5z             0.339630       0.025861
                         18       1    1ix4y2            0.339630       0.044793
                         18       1    1ix4yz            0.339630       0.077583
                         18       1    1ix4z2            0.339630       0.044793
                         18       1    1ix3y3            0.339630       0.052999
                         18       1    1ix3y2z           0.339630       0.118510
                         18       1    1ix3yz2           0.339630       0.118510
                         18       1    1ix3z3            0.339630       0.052999
                         18       1    1ix2y4            0.339630       0.044793
                         18       1    1ix2y3z           0.339630       0.118510
                         18       1    1ix2y2z2          0.339630       0.152996
                         18       1    1ix2yz3           0.339630       0.118510
                         18       1    1ix2z4            0.339630       0.044793
                         18       1    1ixy5             0.339630       0.025861
                         18       1    1ixy4z            0.339630       0.077583
                         18       1    1ixy3z2           0.339630       0.118510
                         18       1    1ixy2z3           0.339630       0.118510
                         18       1    1ixyz4            0.339630       0.077583
                         18       1    1ixz5             0.339630       0.025861
                         18       1    1iy6              0.339630       0.007797
                         18       1    1iy5z             0.339630       0.025861
                         18       1    1iy4z2            0.339630       0.044793
                         18       1    1iy3z3            0.339630       0.052999
                         18       1    1iy2z4            0.339630       0.044793
                         18       1    1iyz5             0.339630       0.025861
                         18       1    1iz6              0.339630       0.007797

                         19       1    1dx2              0.339644       0.248715
                         19       1    1dxy              0.339644       0.430786
                         19       1    1dxz              0.339644       0.430786
                         19       1    1dy2              0.339644       0.248715
                         19       1    1dyz              0.339644       0.430786
                         19       1    1dz2              0.339644       0.248715

                         20       1    1s                0.380123       0.345027

                         21       1    1fx3              0.415519       0.204072
                         21       1    1fx2y             0.415519       0.456319
                         21       1    1fx2z             0.415519       0.456319
                         21       1    1fxy2             0.415519       0.456319
                         21       1    1fxyz             0.415519       0.790368
                         21       1    1fxz2             0.415519       0.456319
                         21       1    1fy3              0.415519       0.204072
                         21       1    1fy2z             0.415519       0.456319
                         21       1    1fyz2             0.415519       0.456319
                         21       1    1fz3              0.415519       0.204072

                         22       1    1hx5              0.427119       0.046733
                         22       1    1hx4y             0.427119       0.140200
                         22       1    1hx4z             0.427119       0.140200
                         22       1    1hx3y2            0.427119       0.214160
                         22       1    1hx3yz            0.427119       0.370935
                         22       1    1hx3z2            0.427119       0.214160
                         22       1    1hx2y3            0.427119       0.214160
                         22       1    1hx2y2z           0.427119       0.478876
                         22       1    1hx2yz2           0.427119       0.478876
                         22       1    1hx2z3            0.427119       0.214160
                         22       1    1hxy4             0.427119       0.140200
                         22       1    1hxy3z            0.427119       0.370935
                         22       1    1hxy2z2           0.427119       0.478876
                         22       1    1hxyz3            0.427119       0.370935
                         22       1    1hxz4             0.427119       0.140200
                         22       1    1hy5              0.427119       0.046733
                         22       1    1hy4z             0.427119       0.140200
                         22       1    1hy3z2            0.427119       0.214160
                         22       1    1hy2z3            0.427119       0.214160
                         22       1    1hyz4             0.427119       0.140200
                         22       1    1hz5              0.427119       0.046733

                         23       1    1gx4              0.434910       0.112729
                         23       1    1gx3y             0.434910       0.298252
                         23       1    1gx3z             0.434910       0.298252
                         23       1    1gx2y2            0.434910       0.385041
                         23       1    1gx2yz            0.434910       0.666911
                         23       1    1gx2z2            0.434910       0.385041
                         23       1    1gxy3             0.434910       0.298252
                         23       1    1gxy2z            0.434910       0.666911
                         23       1    1gxyz2            0.434910       0.666911
                         23       1    1gxz3             0.434910       0.298252
                         23       1    1gy4              0.434910       0.112729
                         23       1    1gy3z             0.434910       0.298252
                         23       1    1gy2z2            0.434910       0.385041
                         23       1    1gyz3             0.434910       0.298252
                         23       1    1gz4              0.434910       0.112729

                         24       1    1px               0.520190       0.629713
                         24       1    1py               0.520190       0.629713
                         24       1    1pz               0.520190       0.629713

                         25       1    1hx5              0.598672       0.140026
                         25       1    1hx4y             0.598672       0.420078
                         25       1    1hx4z             0.598672       0.420078
                         25       1    1hx3y2            0.598672       0.641679
                         25       1    1hx3yz            0.598672       1.111421
                         25       1    1hx3z2            0.598672       0.641679
                         25       1    1hx2y3            0.598672       0.641679
                         25       1    1hx2y2z           0.598672       1.434838
                         25       1    1hx2yz2           0.598672       1.434838
                         25       1    1hx2z3            0.598672       0.641679
                         25       1    1hxy4             0.598672       0.420078
                         25       1    1hxy3z            0.598672       1.111421
                         25       1    1hxy2z2           0.598672       1.434838
                         25       1    1hxyz3            0.598672       1.111421
                         25       1    1hxz4             0.598672       0.420078
                         25       1    1hy5              0.598672       0.140026
                         25       1    1hy4z             0.598672       0.420078
                         25       1    1hy3z2            0.598672       0.641679
                         25       1    1hy2z3            0.598672       0.641679
                         25       1    1hyz4             0.598672       0.420078
                         25       1    1hz5              0.598672       0.140026

                         26       1    1ix6              0.598672       0.065334
                         26       1    1ix5y             0.598672       0.216687
                         26       1    1ix5z             0.598672       0.216687
                         26       1    1ix4y2            0.598672       0.375313
                         26       1    1ix4yz            0.598672       0.650061
                         26       1    1ix4z2            0.598672       0.375313
                         26       1    1ix3y3            0.598672       0.444076
                         26       1    1ix3y2z           0.598672       0.992984
                         26       1    1ix3yz2           0.598672       0.992984
                         26       1    1ix3z3            0.598672       0.444076
                         26       1    1ix2y4            0.598672       0.375313
                         26       1    1ix2y3z           0.598672       0.992984
                         26       1    1ix2y2z2          0.598672       1.281937
                         26       1    1ix2yz3           0.598672       0.992984
                         26       1    1ix2z4            0.598672       0.375313
                         26       1    1ixy5             0.598672       0.216687
                         26       1    1ixy4z            0.598672       0.650061
                         26       1    1ixy3z2           0.598672       0.992984
                         26       1    1ixy2z3           0.598672       0.992984
                         26       1    1ixyz4            0.598672       0.650061
                         26       1    1ixz5             0.598672       0.216687
                         26       1    1iy6              0.598672       0.065334
                         26       1    1iy5z             0.598672       0.216687
                         26       1    1iy4z2            0.598672       0.375313
                         26       1    1iy3z3            0.598672       0.444076
                         26       1    1iy2z4            0.598672       0.375313
                         26       1    1iyz5             0.598672       0.216687
                         26       1    1iz6              0.598672       0.065334

                         27       1    1s                0.705917       0.548877

                         28       1    1fx3              0.764640       0.804883
                         28       1    1fx2y             0.764640       1.799773
                         28       1    1fx2z             0.764640       1.799773
                         28       1    1fxy2             0.764640       1.799773
                         28       1    1fxyz             0.764640       3.117298
                         28       1    1fxz2             0.764640       1.799773
                         28       1    1fy3              0.764640       0.804883
                         28       1    1fy2z             0.764640       1.799773
                         28       1    1fyz2             0.764640       1.799773
                         28       1    1fz3              0.764640       0.804883

                         29       1    1dx2              0.771893       1.046247
                         29       1    1dxy              0.771893       1.812154
                         29       1    1dxz              0.771893       1.812154
                         29       1    1dy2              0.771893       1.046247
                         29       1    1dyz              0.771893       1.812154
                         29       1    1dz2              0.771893       1.046247

                         30       1    1gx4              0.856517       0.726874
                         30       1    1gx3y             0.856517       1.923129
                         30       1    1gx3z             0.856517       1.923129
                         30       1    1gx2y2            0.856517       2.482749
                         30       1    1gx2yz            0.856517       4.300247
                         30       1    1gx2z2            0.856517       2.482749
                         30       1    1gxy3             0.856517       1.923129
                         30       1    1gxy2z            0.856517       4.300247
                         30       1    1gxyz2            0.856517       4.300247
                         30       1    1gxz3             0.856517       1.923129
                         30       1    1gy4              0.856517       0.726874
                         30       1    1gy3z             0.856517       1.923129
                         30       1    1gy2z2            0.856517       2.482749
                         30       1    1gyz3             0.856517       1.923129
                         30       1    1gz4              0.856517       0.726874

                         31       1    1px               1.029950       1.478973
                         31       1    1py               1.029950       1.478973
                         31       1    1pz               1.029950       1.478973

                         32       1    1hx5              1.185280       1.289028
                         32       1    1hx4y             1.185280       3.867083
                         32       1    1hx4z             1.185280       3.867083
                         32       1    1hx3y2            1.185280       5.907067
                         32       1    1hx3yz            1.185280      10.231341
                         32       1    1hx3z2            1.185280       5.907067
                         32       1    1hx2y3            1.185280       5.907067
                         32       1    1hx2y2z           1.185280      13.208604
                         32       1    1hx2yz2           1.185280      13.208604
                         32       1    1hx2z3            1.185280       5.907067
                         32       1    1hxy4             1.185280       3.867083
                         32       1    1hxy3z            1.185280      10.231341
                         32       1    1hxy2z2           1.185280      13.208604
                         32       1    1hxyz3            1.185280      10.231341
                         32       1    1hxz4             1.185280       3.867083
                         32       1    1hy5              1.185280       1.289028
                         32       1    1hy4z             1.185280       3.867083
                         32       1    1hy3z2            1.185280       5.907067
                         32       1    1hy2z3            1.185280       5.907067
                         32       1    1hyz4             1.185280       3.867083
                         32       1    1hz5              1.185280       1.289028

                         33       1    1fx3              1.349290       2.888626
                         33       1    1fx2y             1.349290       6.459165
                         33       1    1fx2z             1.349290       6.459165
                         33       1    1fxy2             1.349290       6.459165
                         33       1    1fxyz             1.349290      11.187602
                         33       1    1fxz2             1.349290       6.459165
                         33       1    1fy3              1.349290       2.888626
                         33       1    1fy2z             1.349290       6.459165
                         33       1    1fyz2             1.349290       6.459165
                         33       1    1fz3              1.349290       2.888626

                         34       1    1dx2              1.351630       2.788757
                         34       1    1dxy              1.351630       4.830269
                         34       1    1dxz              1.351630       4.830269
                         34       1    1dy2              1.351630       2.788757
                         34       1    1dyz              1.351630       4.830269
                         34       1    1dz2              1.351630       2.788757

                         35       1    1s                1.423940       0.929028

                         36       1    1gx4              1.819640       5.772919
                         36       1    1gx3y             1.819640      15.273709
                         36       1    1gx3z             1.819640      15.273709
                         36       1    1gx2y2            1.819640      19.718273
                         36       1    1gx2yz            1.819640      34.153051
                         36       1    1gx2z2            1.819640      19.718273
                         36       1    1gxy3             1.819640      15.273709
                         36       1    1gxy2z            1.819640      34.153051
                         36       1    1gxyz2            1.819640      34.153051
                         36       1    1gxz3             1.819640      15.273709
                         36       1    1gy4              1.819640       5.772919
                         36       1    1gy3z             1.819640      15.273709
                         36       1    1gy2z2            1.819640      19.718273
                         36       1    1gyz3             1.819640      15.273709
                         36       1    1gz4              1.819640       5.772919

                         37       1    1px               2.347260       4.141347
                         37       1    1py               2.347260       4.141347
                         37       1    1pz               2.347260       4.141347

                         38       1    1dx2              2.681530       9.248666
                         38       1    1dxy              2.681530      16.019160
                         38       1    1dxz              2.681530      16.019160
                         38       1    1dy2              2.681530       9.248666
                         38       1    1dyz              2.681530      16.019160
                         38       1    1dz2              2.681530       9.248666

                         39       1    1s                2.891360       1.580290

                         40       1    1fx3              3.229490      20.582865
                         40       1    1fx2y             3.229490      46.024685
                         40       1    1fx2z             3.229490      46.024685
                         40       1    1fxy2             3.229490      46.024685
                         40       1    1fxyz             3.229490      79.717093
                         40       1    1fxz2             3.229490      46.024685
                         40       1    1fy3              3.229490      20.582865
                         40       1    1fy2z             3.229490      46.024685
                         40       1    1fyz2             3.229490      46.024685
                         40       1    1fz3              3.229490      20.582865

                         41       1    1px               6.081490      13.612960
                         41       1    1py               6.081490      13.612960
                         41       1    1pz               6.081490      13.612960

                         42       1    1dx2              6.963580      49.132227
                         42       1    1dxy              6.963580      85.099514
                         42       1    1dxz              6.963580      85.099514
                         42       1    1dy2              6.963580      49.132227
                         42       1    1dyz              6.963580      85.099514
                         42       1    1dz2              6.963580      49.132227

                         43       1    1s                7.795370       3.324969

                         44       1    1px              20.093900      60.641563
                         44       1    1py              20.093900      60.641563
                         44       1    1pz              20.093900      60.641563

                         45       1    1s               24.228600       7.783167

                         46       1    1s              115.553000      25.118634

       Atomic covalent radius [Angstrom]:                                  1.230

       Atomic van der Waals radius [Angstrom]:                             1.820

     The atoms of this atomic kind are PAW atoms (GAPW):
       Hard Gaussian function radius:                                      1.512
       Rho0 radius:                                                        1.512
       Maximum GTO radius used for PAW projector construction:            24.566

     GAPW Soft Basis Set                                        aug-cc-pVDZ_soft

       Number of orbital shell sets:                                           6
       Number of orbital shells:                                               9
       Number of primitive Cartesian functions:                               12
       Number of Cartesian basis functions:                                   25
       Number of spherical basis functions:                                   23
       Norm type:                                                              2

       Normalised Cartesian orbitals:

                        Set   Shell   Orbital            Exponent    Coefficient

                          1       1    1px               0.005800       0.002282
                          1       1    1py               0.005800       0.002282
                          1       1    1pz               0.005800       0.002282

                          2       1    1s                0.008600       0.020127

                          3       1    1px               1.534000       0.055444
                                                         0.274900       0.039469
                                                         0.073620       0.027351
                                                         0.024030       0.006857
                          3       1    1py               1.534000       0.055444
                                                         0.274900       0.039469
                                                         0.073620       0.027351
                                                         0.024030       0.006857
                          3       1    1pz               1.534000       0.055444
                                                         0.274900       0.039469
                                                         0.073620       0.027351
                                                         0.024030       0.006857

                          3       2    2px               1.534000       0.000000
                                                         0.274900       0.000000
                                                         0.073620       0.000000
                                                         0.024030       0.013486
                          3       2    2py               1.534000       0.000000
                                                         0.274900       0.000000
                                                         0.073620       0.000000
                                                         0.024030       0.013486
                          3       2    2pz               1.534000       0.000000
                                                         0.274900       0.000000
                                                         0.073620       0.000000
                                                         0.024030       0.013486

                          4       1    1s                1.580000       0.455113
                                                         0.564000       0.127452
                                                         0.073450       0.000981
                                                         0.028050      -0.000155

                          4       2    2s                1.580000      -0.096431
                                                         0.564000      -0.063259
                                                         0.073450       0.057829
                                                         0.028050       0.025287

                          4       3    3s                1.580000       0.000000
                                                         0.564000       0.000000
                                                         0.073450       0.000000
                                                         0.028050       0.048849

                          5       1    1dx2              0.073300       0.016996
                          5       1    1dxy              0.073300       0.029438
                          5       1    1dxz              0.073300       0.029438
                          5       1    1dy2              0.073300       0.016996
                          5       1    1dyz              0.073300       0.029438
                          5       1    1dz2              0.073300       0.016996

                          6       1    1dx2              0.114400       0.037039
                          6       1    1dxy              0.114400       0.064153
                          6       1    1dxz              0.114400       0.064153
                          6       1    1dy2              0.114400       0.037039
                          6       1    1dyz              0.114400       0.064153
                          6       1    1dz2              0.114400       0.037039

     AE Potential information for                                            ALL

       Description:                                       All-electron potential
                                          Krack, Parrinello, PCCP 2, 2105 (2000)

       Gaussian exponent of the core charge distribution:               3.125000
       Electronic configuration (s p d ...):                           3   0   0


 MOLECULE KIND INFORMATION


 All atoms are their own molecule, skipping detailed information


 TOTAL NUMBERS AND MAXIMUM NUMBERS

  Total number of            - Atomic kinds:                                   1
                             - Atoms:                                          2
                             - Shell sets:                                    12
                             - Shells:                                        18
                             - Primitive Cartesian functions:                 34
                             - Cartesian basis functions:                     50
                             - Spherical basis functions:                     46

  Maximum angular momentum of the orbital basis functions:                     2


 MODULE QUICKSTEP: ATOMIC COORDINATES IN ANGSTROM

   Atom Kind Element         X             Y             Z       Z(eff)     Mass
      1    1 li    3     15.000000     15.000000     16.394718   3.0000   6.9410
      2    1 li    3     15.000000     15.000000     13.605282   3.0000   6.9410



 SCF PARAMETERS         Density guess:                                    ATOMIC
                        --------------------------------------------------------
                        max_scf:                                             500
                        max_scf_history:                                       0
                        max_diis:                                              4
                        --------------------------------------------------------
                        eps_scf:                                        1.00E-06
                        eps_scf_history:                                0.00E+00
                        eps_diis:                                       1.00E-01
                        eps_eigval:                                     1.00E-05
                        --------------------------------------------------------
                        level_shift [a.u.]:                             0.000000
                        added MOs                                        43    0
                        --------------------------------------------------------
                        Mixing method:                            BROYDEN_MIXING
                                                charge density mixing in g-space
                        --------------------------------------------------------
                        Smear method:                                FERMI_DIRAC
                        Electronic temperature [K]:                        300.0
                        Electronic temperature [a.u.]:                  9.50E-04
                        Accuracy threshold:                             1.00E-10
                        --------------------------------------------------------
                        No outer SCF

 PW_GRID| Information for grid number                                          1
 PW_GRID| Grid distributed over                                    48 processors
 PW_GRID| Real space group dimensions                                    48    1
 PW_GRID| the grid is blocked:                                                NO
 PW_GRID| Cutoff [a.u.]                                                    250.0
 PW_GRID| spherical cutoff:                                                   NO
 PW_GRID|   Bounds   1           -202     202                Points:         405
 PW_GRID|   Bounds   2           -202     202                Points:         405
 PW_GRID|   Bounds   3           -202     202                Points:         405
 PW_GRID| Volume element (a.u.^3)  0.2743E-02     Volume (a.u.^3)    182205.0337
 PW_GRID| Grid span                                                    FULLSPACE
 PW_GRID|   Distribution                         Average         Max         Min
 PW_GRID|   G-Vectors                          1383960.9     1384290     1383885
 PW_GRID|   G-Rays                                3417.2        3418        3417
 PW_GRID|   Real Space Points                  1383960.9     1476225     1312200

 PW_GRID| Information for grid number                                          2
 PW_GRID| Number of the reference grid                                         1
 PW_GRID| Grid distributed over                                    48 processors
 PW_GRID| Real space group dimensions                                    48    1
 PW_GRID| the grid is blocked:                                                NO
 PW_GRID| Cutoff [a.u.]                                                     83.3
 PW_GRID| spherical cutoff:                                                   NO
 PW_GRID|   Bounds   1           -120     119                Points:         240
 PW_GRID|   Bounds   2           -120     119                Points:         240
 PW_GRID|   Bounds   3           -120     119                Points:         240
 PW_GRID| Volume element (a.u.^3)  0.1318E-01     Volume (a.u.^3)    182205.0337
 PW_GRID| Grid span                                                    FULLSPACE
 PW_GRID|   Distribution                         Average         Max         Min
 PW_GRID|   G-Vectors                           288000.0      288720      287520
 PW_GRID|   G-Rays                                1200.0        1203        1198
 PW_GRID|   Real Space Points                   288000.0      288000      288000

 PW_GRID| Information for grid number                                          3
 PW_GRID| Number of the reference grid                                         1
 PW_GRID| Grid distributed over                                    48 processors
 PW_GRID| Real space group dimensions                                    48    1
 PW_GRID| the grid is blocked:                                                NO
 PW_GRID| Cutoff [a.u.]                                                     27.8
 PW_GRID| spherical cutoff:                                                   NO
 PW_GRID|   Bounds   1            -67      67                Points:         135
 PW_GRID|   Bounds   2            -67      67                Points:         135
 PW_GRID|   Bounds   3            -67      67                Points:         135
 PW_GRID| Volume element (a.u.^3)  0.7406E-01     Volume (a.u.^3)    182205.0337
 PW_GRID| Grid span                                                    FULLSPACE
 PW_GRID|   Distribution                         Average         Max         Min
 PW_GRID|   G-Vectors                            51257.8       51570       51030
 PW_GRID|   G-Rays                                 379.7         382         378
 PW_GRID|   Real Space Points                    51257.8       54675       36450

 PW_GRID| Information for grid number                                          4
 PW_GRID| Number of the reference grid                                         1
 PW_GRID| Grid distributed over                                    48 processors
 PW_GRID| Real space group dimensions                                    48    1
 PW_GRID| the grid is blocked:                                                NO
 PW_GRID| Cutoff [a.u.]                                                      9.3
 PW_GRID| spherical cutoff:                                                   NO
 PW_GRID|   Bounds   1            -40      39                Points:          80
 PW_GRID|   Bounds   2            -40      39                Points:          80
 PW_GRID|   Bounds   3            -40      39                Points:          80
 PW_GRID| Volume element (a.u.^3)  0.3559         Volume (a.u.^3)    182205.0337
 PW_GRID| Grid span                                                    FULLSPACE
 PW_GRID|   Distribution                         Average         Max         Min
 PW_GRID|   G-Vectors                            10666.7       10800       10560
 PW_GRID|   G-Rays                                 133.3         135         132
 PW_GRID|   Real Space Points                    10666.7       12800        6400

 POISSON| Solver                                                         WAVELET
 POISSON| Wavelet| Scaling function                                           40
 POISSON| Periodicity                                                       NONE

 RS_GRID| Information for grid number                                          1
 RS_GRID|   Bounds   1           -202     202                Points:         405
 RS_GRID|   Bounds   2           -202     202                Points:         405
 RS_GRID|   Bounds   3           -202     202                Points:         405
 RS_GRID| Real space distribution over                                  3 groups
 RS_GRID| Real space distribution along direction                              1
 RS_GRID| Border size                                                         33
 RS_GRID| Real space distribution over                                  4 groups
 RS_GRID| Real space distribution along direction                              2
 RS_GRID| Border size                                                         33
 RS_GRID| Real space distribution over                                  4 groups
 RS_GRID| Real space distribution along direction                              3
 RS_GRID| Border size                                                         33
 RS_GRID|   Distribution                         Average         Max         Min
 RS_GRID|   Planes                                 201.0         201         201
 RS_GRID|   Distribution                         Average         Max         Min
 RS_GRID|   Planes                                 167.2         168         167
 RS_GRID|   Distribution                         Average         Max         Min
 RS_GRID|   Planes                                 167.2         168         167

 RS_GRID| Information for grid number                                          2
 RS_GRID|   Bounds   1           -120     119                Points:         240
 RS_GRID|   Bounds   2           -120     119                Points:         240
 RS_GRID|   Bounds   3           -120     119                Points:         240
 RS_GRID| Real space distribution over                                  3 groups
 RS_GRID| Real space distribution along direction                              1
 RS_GRID| Border size                                                         37
 RS_GRID| Real space distribution over                                  4 groups
 RS_GRID| Real space distribution along direction                              2
 RS_GRID| Border size                                                         37
 RS_GRID| Real space distribution over                                  4 groups
 RS_GRID| Real space distribution along direction                              3
 RS_GRID| Border size                                                         37
 RS_GRID|   Distribution                         Average         Max         Min
 RS_GRID|   Planes                                 154.0         154         154
 RS_GRID|   Distribution                         Average         Max         Min
 RS_GRID|   Planes                                 134.0         134         134
 RS_GRID|   Distribution                         Average         Max         Min
 RS_GRID|   Planes                                 134.0         134         134

 RS_GRID| Information for grid number                                          3
 RS_GRID|   Bounds   1            -67      67                Points:         135
 RS_GRID|   Bounds   2            -67      67                Points:         135
 RS_GRID|   Bounds   3            -67      67                Points:         135
 RS_GRID| Real space fully replicated
 RS_GRID| Group size                                                           1

 RS_GRID| Information for grid number                                          4
 RS_GRID|   Bounds   1            -40      39                Points:          80
 RS_GRID|   Bounds   2            -40      39                Points:          80
 RS_GRID|   Bounds   3            -40      39                Points:          80
 RS_GRID| Real space fully replicated
 RS_GRID| Group size                                                           1

  HFX_INFO| Replica ID:                                                        1
  HFX_INFO| FRACTION:                                               0.2500000000
  HFX_INFO| Interaction Potential:                                       COULOMB
  HFX_INFO| EPS_SCHWARZ:                                                 1.0E-10
  HFX_INFO| EPS_SCHWARZ_FORCES                                           1.0E-08
  HFX_INFO| EPS_STORAGE_SCALING:                                         1.0E+00
  HFX_INFO| NBINS:                                                            64
  HFX_INFO| BLOCK_SIZE:                                                        1
  HFX_INFO| Number of periodic shells considered:                           NONE
  HFX_INFO| Number of periodic cells considered:                            NONE

 
 RI-RPA| using GPW style
 

 OVERLAP MATRIX CONDITION NUMBER
 1-Norm Condition Number (Estimate)
   CN : |A|*|A^-1|:  6.689E+000 *  1.268E+003   = 8.483E+003  Log(1-CN):  3.9286
 1-Norm and 2-Norm Condition Numbers using Diagonalization
   CN : |A|*|A^-1|:  6.689E+000 *  1.268E+003   = 8.483E+003  Log(1-CN):  3.9286
   CN : max/min ev:  5.052E+000 /  1.116E-003   = 4.528E+003  Log(2-CN):  3.6559

 Number of electrons:                                                          6
 Number of occupied orbitals:                                                  3
 Number of molecular orbitals:                                                46

 Number of orbital functions:                                                 46
 Number of independent orbital functions:                                     46

 Extrapolation method: initial_guess

 Atomic guess: The first density matrix is obtained in terms of atomic orbitals
               and electronic configurations assigned to each atomic kind

 Guess for atomic kind: li

 Electronic structure
    Total number of core electrons                                          0.00
    Total number of valence electrons                                       3.00
    Total number of electrons                                               3.00
    Multiplicity                                                   not specified
    S      2.00  1.00


 *******************************************************************************
                  Iteration          Convergence                     Energy [au]
 *******************************************************************************
                          1        0.731377E-02                  -7.331957752282
                          2        0.566709E-04                  -7.332066558964
                          3        0.445791E-05                  -7.332066611880
                          4        0.187558E-06                  -7.332066612041

 Energy components [Hartree]           Total Energy ::           -7.332066612041
                                        Band Energy ::           -3.825448788804
                                     Kinetic Energy ::            7.388577191559
                                   Potential Energy ::          -14.720643803600
                                      Virial (-V/T) ::            1.992351629001
                                        Core Energy ::           -9.692442909788
                                          XC Energy ::           -1.671208562372
                                     Coulomb Energy ::            4.031584860119

 Orbital energies  State     L     Occupation   Energy[a.u.]          Energy[eV]

                       1     0          2.000      -1.859817          -50.608187
                       2     0          1.000      -0.105815           -2.879382


 Total Electron Density at R=0:                                        13.167941
 Re-scaling the density matrix to get the right number of electrons
                  # Electrons              Trace(P)               Scaling factor
                            6                 6.000                        1.000


 SCF WAVEFUNCTION OPTIMIZATION

  Step     Update method      Time    Convergence         Total energy    Change
  ------------------------------------------------------------------------------

  HFX_MEM_INFO| Est. max. program size before HFX [MiB]:                    1300
  HFX_MEM_INFO| Number of cart. primitive ERI's calculated:             10852341
  HFX_MEM_INFO| Number of sph. ERI's calculated:                         1679046
  HFX_MEM_INFO| Number of sph. ERI's stored in-core:                     1679046
  HFX_MEM_INFO| Number of sph. ERI's stored on disk:                           0
  HFX_MEM_INFO| Number of sph. ERI's calculated on the fly:                    0
  HFX_MEM_INFO| Total memory consumption ERI's RAM [MiB]:                      7
  HFX_MEM_INFO| Whereof max-vals [MiB]:                                        2
  HFX_MEM_INFO| Total compression factor ERI's RAM:                         1.89
  HFX_MEM_INFO| Total memory consumption ERI's disk [MiB]:                     0
  HFX_MEM_INFO| Total compression factor ERI's disk:                        0.00
  HFX_MEM_INFO| Size of density/Fock matrix [MiB]:                             0
  HFX_MEM_INFO| Size of buffers [MiB]:                                         0
  HFX_MEM_INFO| Est. max. program size after HFX  [MiB]:                    1818

     1 NoMix/Diag. 0.10E+00    3.9     0.77767730       -14.9313753891 -1.49E+01
     2 Broy./Diag. 0.10E+00    2.6     0.11659303       -14.9103688570  2.10E-02
     3 Broy./Diag. 0.10E+00    2.6     0.05489416       -14.8865818196  2.38E-02
     4 Broy./Diag. 0.10E+00    2.7     0.02597879       -14.8741518367  1.24E-02
     5 Broy./Diag. 0.10E+00    2.7     0.01118996       -14.8682570549  5.89E-03
     6 Broy./Diag. 0.10E+00    2.8     0.00457035       -14.8656200917  2.64E-03
     7 Broy./Diag. 0.10E+00    2.7     0.02831033       -14.8739427918 -8.32E-03
     8 Broy./Diag. 0.10E+00    2.8     0.03676194       -14.8826000302 -8.66E-03
     9 Broy./Diag. 0.10E+00    2.9     0.02097875       -14.8917213122 -9.12E-03
    10 Broy./Diag. 0.10E+00    2.8     0.02211290       -14.8996223569 -7.90E-03
    11 Broy./Diag. 0.10E+00    2.8     0.06735079       -14.9182384342 -1.86E-02
    12 Broy./Diag. 0.10E+00    2.8     0.03724821       -14.9357976216 -1.76E-02
    13 Broy./Diag. 0.10E+00    2.8     0.01384976       -14.9435497763 -7.75E-03
    14 Broy./Diag. 0.10E+00    2.8     0.01286214       -14.9513389279 -7.79E-03
    15 Broy./Diag. 0.10E+00    2.9     0.01873155       -14.9576806494 -6.34E-03
    16 Broy./Diag. 0.10E+00    2.8     0.01048071       -14.9619051233 -4.22E-03
    17 Broy./Diag. 0.10E+00    2.8     0.00476625       -14.9621958967 -2.91E-04
    18 Broy./Diag. 0.10E+00    2.8     0.01182528       -14.9627922668 -5.96E-04
    19 Broy./Diag. 0.10E+00    2.9     0.00194540       -14.9641203969 -1.33E-03
    20 Broy./Diag. 0.10E+00    2.9     0.01158870       -14.9620067408  2.11E-03
    21 Broy./Diag. 0.10E+00    2.8     0.00108003       -14.9605974072  1.41E-03
    22 Broy./Diag. 0.10E+00    2.9     0.00788892       -14.9623747569 -1.78E-03
    23 Broy./Diag. 0.10E+00    2.9     0.00314650       -14.9639061387 -1.53E-03
    24 Broy./Diag. 0.10E+00    2.9     0.00142078       -14.9636723041  2.34E-04
    25 Broy./Diag. 0.10E+00    2.9     0.00181153       -14.9627470990  9.25E-04
    26 Broy./Diag. 0.10E+00    2.9     0.00060576       -14.9621989746  5.48E-04
    27 Broy./Diag. 0.10E+00    2.9     0.00190403       -14.9624142186 -2.15E-04
    28 Broy./Diag. 0.10E+00    2.8     0.00161885       -14.9628707964 -4.57E-04
    29 Broy./Diag. 0.10E+00    2.9     0.00021074       -14.9630332709 -1.62E-04
    30 Broy./Diag. 0.10E+00    2.9     0.00034043       -14.9629282056  1.05E-04
    31 Broy./Diag. 0.10E+00    2.8     0.00075049       -14.9629534747 -2.53E-05
    32 Broy./Diag. 0.10E+00    2.9     0.00073190       -14.9629941126 -4.06E-05
    33 Broy./Diag. 0.10E+00    2.9     0.00027820       -14.9629351088  5.90E-05
    34 Broy./Diag. 0.10E+00    2.9     0.00019310       -14.9628580329  7.71E-05
    35 Broy./Diag. 0.10E+00    2.9     0.00013101       -14.9629272728 -6.92E-05
    36 Broy./Diag. 0.10E+00    2.9     0.00040410       -14.9629278239 -5.51E-07
    37 Broy./Diag. 0.10E+00    2.9     0.00016428       -14.9628554419  7.24E-05
    38 Broy./Diag. 0.10E+00    2.9     0.00049123       -14.9629078414 -5.24E-05
    39 Broy./Diag. 0.10E+00    3.0     0.00021610       -14.9630053818 -9.75E-05
    40 Broy./Diag. 0.10E+00    2.9     0.00019244       -14.9629444888  6.09E-05
    41 Broy./Diag. 0.10E+00    2.9     0.00005484       -14.9628654285  7.91E-05
    42 Broy./Diag. 0.10E+00    2.9     0.00021953       -14.9628614239  4.00E-06
    43 Broy./Diag. 0.10E+00    2.9     0.00003768       -14.9628738100 -1.24E-05
    44 Broy./Diag. 0.10E+00    2.9     0.00009263       -14.9628459623  2.78E-05
    45 Broy./Diag. 0.10E+00    2.9     0.00010693       -14.9628083350  3.76E-05
    46 Broy./Diag. 0.10E+00    2.9     0.00009243       -14.9627774528  3.09E-05
    47 Broy./Diag. 0.10E+00    2.9     0.00010201       -14.9627529059  2.45E-05
    48 Broy./Diag. 0.10E+00    2.9     0.00018102       -14.9627408689  1.20E-05
    49 Broy./Diag. 0.10E+00    2.9     0.00002406       -14.9627476039 -6.73E-06
    50 Broy./Diag. 0.10E+00    2.9     0.00005148       -14.9627607313 -1.31E-05
    51 Broy./Diag. 0.10E+00    2.9     0.00006846       -14.9627573526  3.38E-06
    52 Broy./Diag. 0.10E+00    2.9     0.00004574       -14.9627432461  1.41E-05
    53 Broy./Diag. 0.10E+00    2.9     0.00003439       -14.9627337617  9.48E-06
    54 Broy./Diag. 0.10E+00    2.9     0.00002538       -14.9627367363 -2.97E-06
[...]
 J. Chem. Theory Comput. 12, 3623-3635 (2016).
 GW in the Gaussian and plane waves scheme with application to linear acenes.
 https://doi.org/10.1021/acs.jctc.6b00380

 M. Del Ben, O. Schuett, T. Wentz, P. Messmer, J. Hutter, J. VandeVondele.
 Comput. Phys. Commun. 187, 120-129 (2015).
 Enabling simulation at the fifth rung of DFT: Large scale RPA calculations with 
 excellent time to solution.
 https://doi.org/10.1016/j.cpc.2014.10.021

 J. Hutter, M. Iannuzzi, F. Schiffmann, J. VandeVondele.
 WIREs Comput Mol Sci. 4, 15-25 (2014).
 CP2K: atomistic simulations of condensed matter systems.
 https://doi.org/10.1002/wcms.1159

 U. Borstnik, J. VandeVondele, V. Weber, J. Hutter.
 Parallel Comput. 40, 47-58 (2014).
 Sparse matrix multiplication: The distributed block-compressed sparse row 
 library.
 https://doi.org/10.1016/j.parco.2014.03.012

 M. Del Ben, J. Hutter, J. VandeVondele.
 J. Chem. Theory Comput. 9, 2654-2671 (2013).
 Electron Correlation in the Condensed Phase from a Resolution of Identity 
 Approach Based on the Gaussian and Plane Waves Scheme.
 https://doi.org/10.1021/ct4002202

 M. Del Ben, J. Hutter, J. VandeVondele.
 J. Chem. Theory Comput. 8, 4177-4188 (2012).
 Second-Order Moller-Plesset Perturbation Theory in the Condensed Phase: An 
 Efficient and Massively Parallel Gaussian and Plane Waves Approach.
 https://doi.org/10.1021/ct300531w

 M. Guidon, J. Hutter, J. VandeVondele.
 J. Chem. Theory Comput. 5, 3010-3021 (2009).
 Robust Periodic Hartree-Fock Exchange for Large-Scale Simulations Using 
 Gaussian Basis Sets.
 https://doi.org/10.1021/ct900494g

 M. Guidon, F. Schiffmann, J. Hutter, J. VandeVondele.
 J. Chem. Phys. 128, 214104 (2008).
 Ab initio molecular dynamics using hybrid density functionals.
 https://doi.org/10.1063/1.2931945

 L. Genovese, T. Deutsch, S. Goedecker.
 J. Chem. Phys. 127, 054704 (2007).
 Efficient and accurate three-dimensional Poisson solver for surface problems.
 https://doi.org/10.1063/1.2754685

 J. VandeVondele, J. Hutter.
 J. Chem. Phys. 127, 114105 (2007).
 Gaussian basis sets for accurate calculations on molecular systems in gas and 
 condensed phases.
 https://doi.org/10.1063/1.2770708

 L. Genovese, T. Deutsch, A. Neelov, S. Goedecker, G. Beylkin.
 J. Chem. Phys. 125, 074105 (2006).
 Efficient solution of Poisson's equation with free boundary conditions.
 https://doi.org/10.1063/1.2335442

 M. Frigo, S. G. Johnson.
 Proc. IEEE 93, 216-231 (2005).
 The design and implementation of FFTW3.
 https://doi.org/10.1109/JPROC.2004.840301

 M. Krack, M. Parrinello.
 Phys. Chem. Chem. Phys. 2, 2105-2112 (2000).
 All-electron ab-initio molecular dynamics.
 https://doi.org/10.1039/b001167n

 G. Lippert, J. Hutter, M. Parrinello.
 Theor. Chem. Acc. 103, 124-140 (1999).
 The Gaussian and augmented-plane-wave density functional method for ab initio 
 molecular dynamics simulations.
 https://doi.org/10.1007/s002140050523

 J. P. Perdew, K. Burke, M. Ernzerhof.
 Phys. Rev. Lett. 77, 3865-3868 (1996).
 Generalized gradient approximation made simple.
 https://doi.org/10.1103/PhysRevLett.77.3865


 -------------------------------------------------------------------------------
 -                                                                             -
 -                                T I M I N G                                  -
 -                                                                             -
 -------------------------------------------------------------------------------
 SUBROUTINE                       CALLS  ASD         SELF TIME        TOTAL TIME
                                MAXIMUM       AVERAGE  MAXIMUM  AVERAGE  MAXIMUM
 CP2K                                 1  1.0    0.041    0.068  229.715  229.715
 qs_energies                          1  2.0    0.001    0.001  228.562  228.796
 scf_env_do_scf                       1  3.0    0.000    0.000  224.559  224.560
 scf_env_do_scf_inner_loop           78  4.0    0.002    0.005  224.559  224.560
 qs_ks_build_kohn_sham_matrix        79  7.0    0.012    0.013  169.398  169.417
 qs_ks_update_qs_env                 78  5.0    0.001    0.001  168.023  168.042
 rebuild_ks_matrix                   78  6.0    0.000    0.000  168.017  168.036
 fft_wrap_pw1pw2                   1650  9.9    0.037    0.046   94.228   95.967
 fft_wrap_pw1pw2_250               1176 11.1    4.053    4.490   91.189   92.561
 fft3d_ps                          1650 11.9   37.095   41.159   75.911   77.479
 pw_poisson_solve                    79  8.0    1.404    1.541   68.360   68.411
 qs_vxc_create                       79  8.0    0.001    0.001   57.177   57.178
 xc_vxc_pw_create                    78  9.0    0.983    1.115   57.176   57.176
 ps_wavelet_solve                    79  9.0   35.502   39.792   45.365   45.668
 xc_pw_derive                       468 11.0    0.005    0.006   41.389   42.858
 mp_alltoall_d54                     79 10.0    6.474   35.380    6.474   35.380
 mp_alltoall_z22v                  1650 13.9   29.830   33.858   29.830   33.858
 xc_pw_divergence                    78 10.0    0.003    0.003   28.399   29.939
 xc_rho_set_and_dset_create          78 10.0    0.712    1.005   27.214   29.254
 qs_rho_update_rho_low               79  5.0    0.001    0.001   28.822   28.822
 calculate_rho_elec                  79  6.0    0.772    0.824   28.785   28.785
 gspace_mixing                       77  5.0    0.752    0.802   27.439   27.440
 yz_to_x                            787 12.8    2.644    3.192   18.610   22.103
 x_to_yz                            863 13.1    6.315    6.836   20.180   20.962
 broyden_mixing                      77  6.0   20.408   20.662   20.717   20.753
 density_rs2pw                       79  7.0    0.005    0.006   20.296   20.595
 sum_up_and_integrate                79  8.0    0.001    0.002   16.052   16.083
 integrate_v_rspace                  79  9.0    0.002    0.002   15.823   15.918
 potential_pw2rs                     79 10.0    0.040    0.046   15.227   15.343
 prepare_gapw_den                    79  8.0    0.001    0.001   11.339   11.552
 put_rho0_on_grid                    79  9.0    0.777    0.834   11.107   11.319
 transfer_pw2rs                     396 10.6    0.006    0.007   10.905   11.012
 transfer_rs2pw                     396  8.4    0.010    0.015    9.535    9.786
 mp_waitany                       10472 11.5    8.431    9.253    8.431    9.253
 xc_functional_eval                 234 10.9    0.001    0.001    6.207    7.894
 pbe_lda_eval                       234 11.9    6.206    7.893    6.206    7.893
 grid_collocate_task_list            79  7.0    7.388    7.767    7.388    7.767
 transfer_pw2rs_250                 159 11.0    2.269    2.414    7.019    7.233
 mp_alltoall_d11v                  1600  9.5    3.580    7.230    3.580    7.230
 transfer_rs2pw_250                 159 10.0    2.401    2.570    6.499    6.750
 pw_scatter_p                       863 12.1    6.183    6.322    6.183    6.322
 mp_alltoall_d45                     80 10.0    3.111    6.169    3.111    6.169
 pw_gather_p                        787 11.8    5.197    5.987    5.197    5.987
 pw_derive                          705 11.3    4.549    4.885    4.549    4.885
 integrate_vhg0_rspace               79  8.0    0.023    0.029    4.565    4.583
 hfx_ks_matrix                       79  8.0    0.003    0.003    4.141    4.229
 integrate_four_center               79  9.0    1.670    3.553    4.137    4.224
 mp_sync                            839  9.5    2.072    3.751    2.072    3.751
 mp2_main                             1  3.0    0.000    0.000    3.194    3.428
 mp_sum_d                          1932  6.4    2.404    3.373    2.404    3.373
 cp2k_distribution_to_z_slices       79  9.0    1.476    1.574    2.877    3.036
 pw_copy                           1180 10.6    2.700    2.878    2.700    2.878
 fft_wrap_pw1pw2_90                 158 10.5    0.117    0.154    2.441    2.804
 pw_poisson_set                      80  8.9    0.003    0.003    2.516    2.567
 mp_waitall_1                     25626 12.1    1.106    2.153    1.106    2.153
 transfer_pw2rs_90                   79 12.0    0.425    0.502    1.660    2.084
 rs_grid_zero                       397 11.2    1.973    2.047    1.973    2.047
 pw_axpy                            785  9.3    1.756    1.874    1.756    1.874
 transfer_pw2rs_30                   79 12.0    1.073    1.179    1.648    1.825
 pw_copy_to_array                   787 11.8    1.648    1.821    1.648    1.821
 mp2_gpw_main                         1  4.0    0.000    0.000    1.623    1.633
 transfer_rs2pw_90                   79  9.0    0.385    0.425    1.355    1.478
 rpa_ri_compute_en                    1  5.0    0.000    0.000    1.446    1.446
 rpa_num_int                          1  6.0    0.001    0.001    1.439    1.440
 compute_vec_Sigma_x_minus_vxc_       1  4.0    0.000    0.000    1.385    1.385
 pw_integral_ab_c1d_c1d_gs           79  9.0    1.160    1.171    1.258    1.370
 pw_copy_from_array                 863 12.1    1.060    1.290    1.060    1.290
 transfer_rs2pw_30                   79  9.0    0.619    0.651    1.267    1.289
 pw_poisson_rebuild                  79  9.0    0.000    0.000    1.116    1.141
 ps_wavelet_create                    1 10.0    0.000    0.000    1.115    1.141
 RS_z_slice_distribution              1 11.0    1.001    1.047    1.115    1.141
 compute_GW_self_energy             100  7.0    0.001    0.002    0.973    0.989
 mp_sendrecv_dv                    7426 10.0    0.923    0.961    0.923    0.961
 mp_sum_dm                          557  7.6    0.516    0.925    0.516    0.925
 mp_isend_dv                       9734 11.7    0.550    0.903    0.550    0.903
 calculate_vxc_atom                  79  8.0    0.013    0.116    0.887    0.887
 pw_zero                            470 10.3    0.762    0.835    0.762    0.835
 qs_scf_new_mos                      78  5.0    0.001    0.001    0.694    0.721
 gaVxcgb_GC                          78  9.0    0.029    0.717    0.029    0.717
 mp_irecv_dm3                      2856 11.5    0.364    0.714    0.364    0.714
 parallel_gemm_fm                   376  8.4    0.001    0.001    0.627    0.631
 parallel_gemm_fm_gemm              376  9.4    0.001    0.001    0.627    0.630
 cp_fm_gemm                         376 10.4    0.626    0.630    0.626    0.630
 transfer_pw2rs_10                   79 12.0    0.270    0.288    0.571    0.624
 init_scf_run                         1  3.0    0.000    0.000    0.599    0.600
 rs_gather_matrices                  79 10.0    0.001    0.006    0.388    0.599
 scf_env_initial_rho_setup            1  4.0    0.000    0.000    0.591    0.591
 compute_GW_self_energy_deep        100  8.0    0.104    0.120    0.573    0.590
 grid_integrate_task_list            79 10.0    0.206    0.574    0.206    0.574
 mp_isend_dm3                      2856 11.5    0.287    0.559    0.287    0.559
 mp_isendrecv_dv                  14852 12.0    0.263    0.539    0.263    0.539
 integrate_four_center_main          79 10.0    0.018    0.281    0.029    0.469
 fft_wrap_pw1pw2_30                 158 10.5    0.019    0.022    0.451    0.467
 qs_init_subsys                       1  2.0    0.004    0.008    0.460    0.461
 qs_env_setup                         1  3.0    0.000    0.000    0.453    0.454
 qs_env_rebuild_pw_env                2  3.5    0.000    0.000    0.451    0.453
 pw_env_rebuild                       1  5.0    0.001    0.001    0.451    0.452
 pw_grid_setup                        4  6.0    0.000    0.000    0.422    0.423
 pw_grid_setup_internal               4  7.0    0.010    0.013    0.422    0.423
 transfer_rs2pw_10                   79  9.0    0.129    0.139    0.404    0.423
 scale_and_distribute               158 10.0    0.393    0.423    0.393    0.423
 eigensolver_symm                    79  6.0    0.002    0.003    0.404    0.406
 cp_fm_syevd                         84  7.0    0.001    0.001    0.402    0.403
 mp_sum_i                            19  9.5    0.234    0.399    0.234    0.399
 restraint_control                    1  2.0    0.000    0.000    0.234    0.398
 mp2_main_alloc_hfx                   1  4.0    0.164    0.398    0.164    0.398
 integrate_four_center_bin         6294 11.0    0.011    0.398    0.011    0.398
 cp_fm_cholesky_invert              101  8.0    0.364    0.387    0.364    0.387
 rpa_num_int_RPA_matrix_operati     100  7.0    0.001    0.002    0.383    0.384
 mp_max_i                           557  3.0    0.230    0.379    0.230    0.379
 Vh_1c_gg_integrals                  79  8.0    0.006    0.048    0.219    0.375
 create_qs_kind_set                   1  2.0    0.000    0.000    0.353    0.354
 read_qs_kind                         1  3.0    0.188    0.198    0.353    0.354
 cp_fm_redistribute_end              84  8.0    0.190    0.346    0.191    0.348
 pw_grid_sort                         4  8.0    0.223    0.225    0.318    0.321
 cp_fm_syevd_base                    84  8.0    0.155    0.312    0.155    0.312
 pw_scale                           313  9.5    0.211    0.279    0.211    0.279
 mp_sum_dv                         3604 11.5    0.181    0.230    0.181    0.230
 calculate_rho_atom                  79  9.0    0.109    0.208    0.109    0.208
 cp_fm_cholesky_decompose           102  9.0    0.195    0.196    0.195    0.196
 compute_Erpa_by_freq_int           100  8.0    0.001    0.001    0.196    0.196
 calc_screening_functions             1 10.0    0.088    0.089    0.191    0.194
 powell_optimize                  77578 11.0    0.188    0.193    0.188    0.193
 calculate_dm_sparse                 78  6.0    0.000    0.001    0.187    0.190
 cp_dbcsr_plus_fm_fm_t               78  7.0    0.001    0.001    0.187    0.190
 calc_mat_Q                         100  8.0    0.000    0.000    0.181    0.183
 contract_S_to_Q                    100  9.0    0.000    0.000    0.180    0.182
 parser_read_line                 39136  4.0    0.014    0.014    0.165    0.168
 dbcsr_multiply_generic             171  8.1    0.006    0.007    0.157    0.163
 mp2_ri_gpw_compute_in                1  5.0    0.000    0.000    0.159    0.159
 parser_read_line_low                44  5.0    0.014    0.067    0.152    0.155
 mixing_init                          1  5.0    0.146    0.148    0.148    0.149
 broadcast_input_information         44  6.0    0.036    0.039    0.137    0.146
 copy_dbcsr_to_fm                   133  6.7    0.002    0.002    0.117    0.144
 mp2_ri_gpw_compute_in_loop           1  6.0    0.000    0.000    0.143    0.143
 calc_pair_dist_radii                 1 10.0    0.044    0.045    0.130    0.132
 update_ks_atom                      79  8.0    0.003    0.008    0.106    0.132
 fft_wrap_pw1pw2_10                 158 10.5    0.004    0.005    0.110    0.131
 mp_bcast_dm                        316  9.0    0.102    0.129    0.102    0.129
 dbcsr_complete_redistribute        293  8.5    0.011    0.016    0.117    0.118
 xc_pw_smooth                        78 10.0    0.000    0.000    0.082    0.115
 scf_post_calculation_gpw             1  3.0    0.000    0.000    0.110    0.110
 write_available_results              1  4.0    0.000    0.000    0.110    0.110
 write_mo_free_results                1  5.0    0.013    0.013    0.110    0.110
 qs_energies_init_hamiltonians        1  3.0    0.000    0.000    0.099    0.099
 contract_B_L                         4  7.0    0.001    0.001    0.089    0.098
 sort_shells                          4  9.0    0.095    0.097    0.095    0.097
 build_core_hamiltonian_matrix        1  4.0    0.000    0.000    0.094    0.094
 overlap_condnum                      1  5.0    0.000    0.001    0.092    0.092
 dbcsr_desymmetrize_deep            135  7.7    0.003    0.003    0.063    0.090
 make_m2s                           342  9.1    0.004    0.004    0.074    0.077
 mp_bcast_i_src                     176  7.0    0.058    0.071    0.058    0.071
 offload_free_buffer                 87  8.4    0.050    0.069    0.050    0.069
 cp_fm_to_fm_submat_general         112 10.1    0.064    0.068    0.064    0.068
 copy_fm_to_dbcsr                   160  8.1    0.001    0.001    0.065    0.068
 mp_alltoall_i22                    428  9.2    0.039    0.067    0.039    0.067
 arnoldi_conjugate_gradient           5  6.0    0.002    0.002    0.065    0.065
 start_bse_calculation                1  7.0    0.000    0.000    0.062    0.062
 cp_fm_redistribute_start            84  8.0    0.044    0.046    0.055    0.059
 integrate_four_center_getP          79 10.0    0.006    0.007    0.050    0.057
 dbt_total                            8  8.0    0.000    0.000    0.056    0.056
 multiply_cannon                    171  9.1    0.011    0.012    0.052    0.055
 pw_grid_assign                       4  8.0    0.050    0.052    0.052    0.053
 cp_fm_uplo_to_full                 104  8.0    0.025    0.052    0.025    0.052
 dbt_contract                         4  9.0    0.001    0.001    0.052    0.052
 mp_cart_create                     357 10.5    0.041    0.050    0.041    0.050
 hirshfeld_integration                1  6.0    0.001    0.004    0.049    0.050
 mp_bcast_am_src                     44  7.0    0.038    0.041    0.043    0.047
 calculate_hirshfeld_normalizat       1  6.0    0.001    0.004    0.045    0.047
 vxc_of_r_new                       156  9.0    0.000    0.007    0.002    0.046
 integrate_four_center_dist_KS       79 10.0    0.006    0.007    0.044    0.045
 dbcsr_finalize                    1997 10.6    0.008    0.013    0.028    0.044
 mp_irecv_dv                       9667 11.7    0.028    0.044    0.028    0.044
 mp_sum_l                          1147  6.6    0.035    0.042    0.035    0.042
 dbcsr_sym_matrix_vector_mult       254  7.0    0.004    0.004    0.027    0.039
 make_images                        342 10.1    0.008    0.009    0.037    0.039
 dbt_tas_multiply                     8 11.5    0.000    0.000    0.038    0.038
 dbt_tas_total                        8 12.5    0.001    0.002    0.038    0.038
 calculate_rho_atom_coeff            79  6.0    0.005    0.013    0.036    0.036
 mp_comm_split_direct                48 14.5    0.022    0.034    0.022    0.034
 mp_alltoall_i11v                  1014  9.4    0.034    0.034    0.034    0.034
 dbt_pgrid_create_expert             80 10.7    0.000    0.000    0.024    0.033
 diagonalize_C                        1  8.0    0.000    0.000    0.033    0.033
 multiply_cannon_loop               171 10.1    0.007    0.007    0.028    0.031
 dbcsr_add_d                        447  7.3    0.001    0.001    0.004    0.027
 mp2_eri_3c_integrate                 1  7.0    0.000    0.001    0.013    0.027
 dbcsr_add_anytype                  447  8.3    0.001    0.004    0.003    0.027
 integrate_set_3c                   540  8.0    0.012    0.024    0.013    0.026
 mp_maxloc_dv                      1515  1.0    0.024    0.026    0.024    0.026
 hybrid_alltoall_any                477 11.1    0.003    0.004    0.025    0.026
 mp2_main_free_hfx                    1  4.0    0.010    0.025    0.010    0.025
 cp_fm_power                          2  7.5    0.000    0.000    0.025    0.025
 dbcsr_crop_matrix                  312 10.0    0.002    0.002    0.022    0.024
 -------------------------------------------------------------------------------

 The number of warnings for this run is : 1
 
 -------------------------------------------------------------------------------
  **** **** ******  **  PROGRAM ENDED AT                 2025-03-18 22:51:58.197
 ***** ** ***  *** **   PROGRAM RAN ON                              i03r03c06s01
 **    ****   ******    PROGRAM RAN BY                                   di38fab
 ***** **    ** ** **   PROGRAM PROCESS ID                               4097337
  **** **  *******  **  PROGRAM STOPPED IN /hppfs/scratch/04/di38fab/05_MOL/W4-1
                                           1+ALK/li2/aug-cc-pVDZ/GW+BSE
