 DBCSR| CPU Multiplication driver                                           BLAS (U)
 DBCSR| Multrec recursion limit                                              512 (U)
 DBCSR| Multiplication stack size                                           1000 (D)
 DBCSR| Maximum elements for images                                    UNLIMITED (U)
 DBCSR| Multiplicative factor virtual images                                   1 (U)
 DBCSR| Use multiplication densification                                       T (D)
 DBCSR| Multiplication size stacks                                             3 (U)
 DBCSR| Use memory pool for CPU allocation                                     F (U)
 DBCSR| Number of 3D layers                                               SINGLE (U)
 DBCSR| Use MPI memory allocation                                              F (U)
 DBCSR| Use RMA algorithm                                                      F (U)
 DBCSR| Use Communication thread                                               T (U)
 DBCSR| Communication thread load                                             75 (D)
 DBCSR| MPI: My process id                                                     0
 DBCSR| MPI: Number of processes                                              24
 DBCSR| OMP: Current number of threads                                         4
 DBCSR| OMP: Max number of threads                                             4
 DBCSR| Split modifier for TAS multiplication algorithm                  1.0E+00 (U)


  **** **** ******  **  PROGRAM STARTED AT               2025-03-11 06:53:01.767
 ***** ** ***  *** **   PROGRAM STARTED ON                          i02r11c05s10
 **    ****   ******    PROGRAM STARTED BY                               di38fab
 ***** **    ** ** **   PROGRAM PROCESS ID                               1796291
  **** **  *******  **  PROGRAM STARTED IN /hppfs/scratch/04/di38fab/05_MOL/W4-1
                                           1+ALK/o2/aug-cc-pVDZ

 CP2K| version string:                 CP2K version 2025.1 (Development Version)
 CP2K| source code revision number:                                  git:d2e611a
 CP2K| cp2kflags: omp libint fftw3 libxc parallel scalapack max_contr=4         
 CP2K| is freely available from                            https://www.cp2k.org/
 CP2K| Program compiled at                       Thu 06 Mar 2025 05:09:20 PM CET
 CP2K| Program compiled on                                               login02
 CP2K| Program compiled for                                        Supermuc-foss
 CP2K| Data directory path                  /hppfs/work/pn36zo/di38fab/cp2k/data
 CP2K| Input file name                                                    GW.inp

 GLOBAL| Force Environment number                                              1
 GLOBAL| Basis set file name            /hppfs/scratch/04/di38fab/04_TMD/BASIS_A
 GLOBAL| Potential file name            /hppfs/work/pn36zo/di38fab/cp2k/data/ALL
 GLOBAL| MM Potential file name                                     MM_POTENTIAL
 GLOBAL| Coordinate file name                                      __STD_INPUT__
 GLOBAL| Method name                                                        CP2K
 GLOBAL| Project name                                                       MoS2
 GLOBAL| Run type                                                         ENERGY
 GLOBAL| FFT library                                                       FFTW3
 GLOBAL| Diagonalization library                                       ScaLAPACK
 GLOBAL| DGEMM library                                                      BLAS
 GLOBAL| Orthonormality check for eigenvectors                          DISABLED
 GLOBAL| Matrix multiplication library                                 ScaLAPACK
 GLOBAL| All-to-all communication in single precision                          F
 GLOBAL| FFTs using library dependent lengths                                  F
 GLOBAL| Grid backend                                                       AUTO
 GLOBAL| Global print level                                               MEDIUM
 GLOBAL| MPI I/O enabled                                                       T
 GLOBAL| Total number of message passing processes                            24
 GLOBAL| Number of threads for this process                                    4
 GLOBAL| This output is from process                                           0
 GLOBAL| OpenMP stack size per thread (OMP_STACKSIZE)                    default
 GLOBAL| CPU model name             Intel(R) Xeon(R) Platinum 8174 CPU @ 3.10GHz

 MEMORY| system memory details [Kb]
 MEMORY|                        rank 0           min           max       average
 MEMORY| MemTotal             98436664      98436660      98436664      98436662
 MEMORY| MemFree              83912068      83912068      83996800      83954434
 MEMORY| Buffers                     0             0             0             0
 MEMORY| Cached                2443376       2419736       2443376       2431556
 MEMORY| Slab                  1263496       1239764       1263496       1251630
 MEMORY| SReclaimable           280756        280756        285064        282910
 MEMORY| MemLikelyFree        86636200      86636200      86701600      86668900


 *** Fundamental physical constants (SI units) ***

 *** Literature: B. J. Mohr and B. N. Taylor,
 ***             CODATA recommended values of the fundamental physical
 ***             constants: 2006, Web Version 5.1
 ***             http://physics.nist.gov/constants

 Speed of light in vacuum [m/s]                             2.99792458000000E+08
 Magnetic constant or permeability of vacuum [N/A**2]       1.25663706143592E-06
 Electric constant or permittivity of vacuum [F/m]          8.85418781762039E-12
 Planck constant (h) [J*s]                                  6.62606896000000E-34
 Planck constant (h-bar) [J*s]                              1.05457162825177E-34
 Elementary charge [C]                                      1.60217648700000E-19
 Electron mass [kg]                                         9.10938215000000E-31
 Electron g factor [ ]                                     -2.00231930436220E+00
 Proton mass [kg]                                           1.67262163700000E-27
 Fine-structure constant                                    7.29735253760000E-03
 Rydberg constant [1/m]                                     1.09737315685270E+07
 Avogadro constant [1/mol]                                  6.02214179000000E+23
 Boltzmann constant [J/K]                                   1.38065040000000E-23
 Atomic mass unit [kg]                                      1.66053878200000E-27
 Bohr radius [m]                                            5.29177208590000E-11

 *** Conversion factors ***

 [u] -> [a.u.]                                              1.82288848426455E+03
 [Angstrom] -> [Bohr] = [a.u.]                              1.88972613288564E+00
 [a.u.] = [Bohr] -> [Angstrom]                              5.29177208590000E-01
 [a.u.] -> [s]                                              2.41888432650478E-17
 [a.u.] -> [fs]                                             2.41888432650478E-02
 [a.u.] -> [J]                                              4.35974393937059E-18
 [a.u.] -> [N]                                              8.23872205491840E-08
 [a.u.] -> [K]                                              3.15774647902944E+05
 [a.u.] -> [kJ/mol]                                         2.62549961709828E+03
 [a.u.] -> [kcal/mol]                                       6.27509468713739E+02
 [a.u.] -> [Pa]                                             2.94210107994716E+13
 [a.u.] -> [bar]                                            2.94210107994716E+08
 [a.u.] -> [atm]                                            2.90362800883016E+08
 [a.u.] -> [eV]                                             2.72113838565563E+01
 [a.u.] -> [Hz]                                             6.57968392072181E+15
 [a.u.] -> [1/cm] (wave numbers)                            2.19474631370540E+05
 [a.u./Bohr**2] -> [1/cm]                                   5.14048714338585E+03
 

 CELL_TOP| Volume [angstrom^3]:                                     27000.000000
 CELL_TOP| Vector a [angstrom    30.000     0.000     0.000   |a| =    30.000000
 CELL_TOP| Vector b [angstrom     0.000    30.000     0.000   |b| =    30.000000
 CELL_TOP| Vector c [angstrom     0.000     0.000    30.000   |c| =    30.000000
 CELL_TOP| Angle (b,c), alpha [degree]:                                90.000000
 CELL_TOP| Angle (a,c), beta  [degree]:                                90.000000
 CELL_TOP| Angle (a,b), gamma [degree]:                                90.000000
 CELL_TOP| Numerically orthorhombic:                                         YES
 CELL_TOP| Periodicity                                                      NONE

 GENERATE|  Preliminary Number of Bonds generated:                             0
 GENERATE|  Achieved consistency in connectivity generation.

 CELL| Volume [angstrom^3]:                                         27000.000000
 CELL| Vector a [angstrom]:      30.000     0.000     0.000   |a| =    30.000000
 CELL| Vector b [angstrom]:       0.000    30.000     0.000   |b| =    30.000000
 CELL| Vector c [angstrom]:       0.000     0.000    30.000   |c| =    30.000000
 CELL| Angle (b,c), alpha [degree]:                                    90.000000
 CELL| Angle (a,c), beta  [degree]:                                    90.000000
 CELL| Angle (a,b), gamma [degree]:                                    90.000000
 CELL| Numerically orthorhombic:                                             YES
 CELL| Periodicity                                                          NONE

 CELL_REF| Volume [angstrom^3]:                                     27000.000000
 CELL_REF| Vector a [angstrom    30.000     0.000     0.000   |a| =    30.000000
 CELL_REF| Vector b [angstrom     0.000    30.000     0.000   |b| =    30.000000
 CELL_REF| Vector c [angstrom     0.000     0.000    30.000   |c| =    30.000000
 CELL_REF| Angle (b,c), alpha [degree]:                                90.000000
 CELL_REF| Angle (a,c), beta  [degree]:                                90.000000
 CELL_REF| Angle (a,b), gamma [degree]:                                90.000000
 CELL_REF| Numerically orthorhombic:                                         YES
 CELL_REF| Periodicity                                                      NONE

 *******************************************************************************
 *******************************************************************************
 **                                                                           **
 **     #####                         ##              ##                      **
 **    ##   ##            ##          ##              ##                      **
 **   ##     ##                       ##            ######                    **
 **   ##     ##  ##   ##  ##   #####  ##  ##   ####   ##    #####    #####    **
 **   ##     ##  ##   ##  ##  ##      ## ##   ##      ##   ##   ##  ##   ##   **
 **   ##  ## ##  ##   ##  ##  ##      ####     ###    ##   ######   ######    **
 **    ##  ###   ##   ##  ##  ##      ## ##      ##   ##   ##       ##        **
 **     #######   #####   ##   #####  ##  ##  ####    ##    #####   ##        **
 **           ##                                                    ##        **
 **                                                                           **
 **                                                ... make the atoms dance   **
 **                                                                           **
 **            Copyright (C) by CP2K developers group (2000-2025)             **
 **                      J. Chem. Phys. 152, 194103 (2020)                    **
 **                                                                           **
 *******************************************************************************

 DFT| Spin restricted Kohn-Sham (RKS) calculation                            RKS
 DFT| Multiplicity                                                             1
 DFT| Number of spin states                                                    1
 DFT| Charge                                                                   0
 DFT| Self-interaction correction (SIC)                                       NO
 DFT| Cutoffs: density                                              1.000000E-10
 DFT|          gradient                                             1.000000E-10
 DFT|          tau                                                  1.000000E-10
 DFT|          cutoff_smoothing_range                               0.000000E+00
 DFT| XC density smoothing                                                  NONE
 DFT| XC derivatives                                                          PW

 FUNCTIONAL| PBE:
 FUNCTIONAL| J.P.Perdew, K.Burke, M.Ernzerhof, Phys. Rev. Letter, vol. 77, n 18,
 FUNCTIONAL|  pp. 3865-3868, (1996)sx=0.750sc=1.000{spin unpolarized}           


 QS| Method:                                                                GAPW
 QS| Density plane wave grid type                        NON-SPHERICAL FULLSPACE
 QS| Number of grid levels:                                                    4
 QS| Density cutoff [a.u.]:                                                250.0
 QS| Multi grid cutoff [a.u.]: 1) grid level                               250.0
 QS|                           2) grid level                                83.3
 QS|                           3) grid level                                27.8
 QS|                           4) grid level                                 9.3
 QS| Grid level progression factor:                                          3.0
 QS| Relative density cutoff [a.u.]:                                        50.0
 QS| Interaction thresholds: eps_pgf_orb:                                1.0E-12
 QS|                         eps_filter_matrix:                          0.0E+00
 QS|                         eps_core_charge:                            1.0E-14
 QS|                         eps_rho_gspace:                             1.0E-12
 QS|                         eps_rho_rspace:                             1.0E-12
 QS|                         eps_gvg_rspace:                             1.0E-06
 QS|                         eps_ppl:                                    1.0E-02
 QS|                         eps_ppnl:                                   1.0E-08
 QS| GAPW|      One center basis from orbital basis primitives
 QS| GAPW|                   eps_fit:                                    1.0E-04
 QS| GAPW|                   eps_iso:                                    1.0E-12
 QS| GAPW|                   eps_svd:                                    1.0E-08
 QS| GAPW|                   eps_cpc:                                    1.0E-12
 QS| GAPW|   atom-r-grid: quadrature:                                     GC_LOG
 QS| GAPW|      atom-s-grid:  max l :                                          4
 QS| GAPW|      max_l_rho0 :                                                   2


 ATOMIC KIND INFORMATION

  1. Atomic kind: O                                     Number of atoms:       2

     Orbital Basis Set                                               aug-cc-pVDZ

       Number of orbital shell sets:                                           6
       Number of orbital shells:                                               9
       Number of primitive Cartesian functions:                               17
       Number of Cartesian basis functions:                                   25
       Number of spherical basis functions:                                   23
       Norm type:                                                              2

       Normalised Cartesian orbitals:

                        Set   Shell   Orbital            Exponent    Coefficient

                          1       1    1px               0.068560       0.050007
                          1       1    1py               0.068560       0.050007
                          1       1    1pz               0.068560       0.050007

                          2       1    1s                0.078960       0.106161

                          3       1    1px              17.700000       2.226162
                                                         3.854000       1.761976
                                                         1.046000       0.767079
                                                         0.275300       0.130905
                          3       1    1py              17.700000       2.226162
                                                         3.854000       1.761976
                                                         1.046000       0.767079
                                                         0.275300       0.130905
                          3       1    1pz              17.700000       2.226162
                                                         3.854000       1.761976
                                                         1.046000       0.767079
                                                         0.275300       0.130905

                          3       2    2px              17.700000       0.000000
                                                         3.854000       0.000000
                                                         1.046000       0.000000
                                                         0.275300       0.284248
                          3       2    2py              17.700000       0.000000
                                                         3.854000       0.000000
                                                         1.046000       0.000000
                                                         0.275300       0.284248
                          3       2    2pz              17.700000       0.000000
                                                         3.854000       0.000000
                                                         1.046000       0.000000
                                                         0.275300       0.284248

                          4       1    1s            11720.000000       0.569986
                                                      1759.000000       1.058881
                                                       400.800000       1.777168
                                                       113.700000       2.600710
                                                        37.030000       3.028357
                                                        13.270000       2.223504
                                                         5.025000       0.648119
                                                         1.013000       0.011124
                                                         0.302300      -0.000751

                          4       2    2s            11720.000000      -0.128448
                                                      1759.000000      -0.244491
                                                       400.800000      -0.400097
                                                       113.700000      -0.638166
                                                        37.030000      -0.758785
                                                        13.270000      -0.819649
                                                         5.025000      -0.279757
                                                         1.013000       0.401106
                                                         0.302300       0.166422

                          4       3    3s            11720.000000       0.000000
                                                      1759.000000       0.000000
                                                       400.800000       0.000000
                                                       113.700000       0.000000
                                                        37.030000       0.000000
                                                        13.270000       0.000000
                                                         5.025000       0.000000
                                                         1.013000       0.000000
                                                         0.302300       0.290562

                          5       1    1dx2              0.332000       0.239002
                          5       1    1dxy              0.332000       0.413963
                          5       1    1dxz              0.332000       0.413963
                          5       1    1dy2              0.332000       0.239002
                          5       1    1dyz              0.332000       0.413963
                          5       1    1dz2              0.332000       0.239002

                          6       1    1dx2              1.185000       2.215218
                          6       1    1dxy              1.185000       3.836871
                          6       1    1dxz              1.185000       3.836871
                          6       1    1dy2              1.185000       2.215218
                          6       1    1dyz              1.185000       3.836871
                          6       1    1dz2              1.185000       2.215218

     RI Auxiliary Basis Set                                    aug-cc-pVDZ-OPTRI

       Number of orbital shell sets:                                          17
       Number of orbital shells:                                              17
       Number of primitive Cartesian functions:                               17
       Number of Cartesian basis functions:                                   88
       Number of spherical basis functions:                                   69
       Norm type:                                                              2

       Normalised Cartesian orbitals:

                        Set   Shell   Orbital            Exponent    Coefficient

                          1       1    1px               0.102282       0.082450
                          1       1    1py               0.102282       0.082450
                          1       1    1pz               0.102282       0.082450

                          2       1    1s                0.117785       0.143294

                          3       1    1px               0.412399       0.471072
                          3       1    1py               0.412399       0.471072
                          3       1    1pz               0.412399       0.471072

                          4       1    1fx3              0.507566       0.320120
                          4       1    1fx2y             0.507566       0.715810
                          4       1    1fx2z             0.507566       0.715810
                          4       1    1fxy2             0.507566       0.715810
                          4       1    1fxyz             0.507566       1.239819
                          4       1    1fxz2             0.507566       0.715810
                          4       1    1fy3              0.507566       0.320120
                          4       1    1fy2z             0.507566       0.715810
                          4       1    1fyz2             0.507566       0.715810
                          4       1    1fz3              0.507566       0.320120

                          5       1    1dx2              0.533937       0.548930
                          5       1    1dxy              0.533937       0.950775
                          5       1    1dxz              0.533937       0.950775
                          5       1    1dy2              0.533937       0.548930
                          5       1    1dyz              0.533937       0.950775
                          5       1    1dz2              0.533937       0.548930

                          6       1    1px               0.892559       1.236620
                          6       1    1py               0.892559       1.236620
                          6       1    1pz               0.892559       1.236620

                          7       1    1s                0.910384       0.664245

                          8       1    1fx3              1.557922       3.991924
                          8       1    1fx2y             1.557922       8.926214
                          8       1    1fx2z             1.557922       8.926214
                          8       1    1fxy2             1.557922       8.926214
                          8       1    1fxyz             1.557922      15.460656
                          8       1    1fxz2             1.557922       8.926214
                          8       1    1fy3              1.557922       3.991924
                          8       1    1fy2z             1.557922       8.926214
                          8       1    1fyz2             1.557922       8.926214
                          8       1    1fz3              1.557922       3.991924

                          9       1    1gx4              1.763142       5.293287
                          9       1    1gx3y             1.763142      14.004722
                          9       1    1gx3z             1.763142      14.004722
                          9       1    1gx2y2            1.763142      18.080018
                          9       1    1gx2yz            1.763142      31.315511
                          9       1    1gx2z2            1.763142      18.080018
                          9       1    1gxy3             1.763142      14.004722
                          9       1    1gxy2z            1.763142      31.315511
                          9       1    1gxyz2            1.763142      31.315511
                          9       1    1gxz3             1.763142      14.004722
                          9       1    1gy4              1.763142       5.293287
                          9       1    1gy3z             1.763142      14.004722
                          9       1    1gy2z2            1.763142      18.080018
                          9       1    1gyz3             1.763142      14.004722
                          9       1    1gz4              1.763142       5.293287

                         10       1    1px               1.931778       3.246285
                         10       1    1py               1.931778       3.246285
                         10       1    1pz               1.931778       3.246285

                         11       1    1s                3.089291       1.660750

                         12       1    1dx2              3.533545      14.989186
                         12       1    1dxy              3.533545      25.962032
                         12       1    1dxz              3.533545      25.962032
                         12       1    1dy2              3.533545      14.989186
                         12       1    1dyz              3.533545      25.962032
                         12       1    1dz2              3.533545      14.989186

                         13       1    1px               4.180971       8.521902
                         13       1    1py               4.180971       8.521902
                         13       1    1pz               4.180971       8.521902

                         14       1    1fx3              4.802730      50.269300
                         14       1    1fx2y             4.802730     112.405572
                         14       1    1fx2z             4.802730     112.405572
                         14       1    1fxy2             4.802730     112.405572
                         14       1    1fxyz             4.802730     194.692161
                         14       1    1fxz2             4.802730     112.405572
                         14       1    1fy3              4.802730      50.269300
                         14       1    1fy2z             4.802730     112.405572
                         14       1    1fyz2             4.802730     112.405572
                         14       1    1fz3              4.802730      50.269300

                         15       1    1dx2              6.710063      46.044844
                         15       1    1dxy              6.710063      79.752009
                         15       1    1dxz              6.710063      79.752009
                         15       1    1dy2              6.710063      46.044844
                         15       1    1dyz              6.710063      79.752009
                         15       1    1dz2              6.710063      46.044844

                         16       1    1s               10.483182       4.152216

                         17       1    1dx2             12.742147     141.443836
                         17       1    1dxy             12.742147     244.987910
                         17       1    1dxz             12.742147     244.987910
                         17       1    1dy2             12.742147     141.443836
                         17       1    1dyz             12.742147     244.987910
                         17       1    1dz2             12.742147     141.443836

       Atomic covalent radius [Angstrom]:                                  0.730

       Atomic van der Waals radius [Angstrom]:                             1.520

     The atoms of this atomic kind are PAW atoms (GAPW):
       Hard Gaussian function radius:                                      1.512
       Rho0 radius:                                                        1.512
       Maximum GTO radius used for PAW projector construction:            24.566

     GAPW Soft Basis Set                                        aug-cc-pVDZ_soft

       Number of orbital shell sets:                                           6
       Number of orbital shells:                                               9
       Number of primitive Cartesian functions:                                9
       Number of Cartesian basis functions:                                   25
       Number of spherical basis functions:                                   23
       Norm type:                                                              2

       Normalised Cartesian orbitals:

                        Set   Shell   Orbital            Exponent    Coefficient

                          1       1    1px               0.068560       0.050007
                          1       1    1py               0.068560       0.050007
                          1       1    1pz               0.068560       0.050007

                          2       1    1s                0.078960       0.106161

                          3       1    1px               3.854000       1.761976
                                                         1.046000       0.767079
                                                         0.275300       0.130905
                          3       1    1py               3.854000       1.761976
                                                         1.046000       0.767079
                                                         0.275300       0.130905
                          3       1    1pz               3.854000       1.761976
                                                         1.046000       0.767079
                                                         0.275300       0.130905

                          3       2    2px               3.854000       0.000000
                                                         1.046000       0.000000
                                                         0.275300       0.284248
                          3       2    2py               3.854000       0.000000
                                                         1.046000       0.000000
                                                         0.275300       0.284248
                          3       2    2pz               3.854000       0.000000
                                                         1.046000       0.000000
                                                         0.275300       0.284248

                          4       1    1s                1.013000       0.011124
                                                         0.302300      -0.000751

                          4       2    2s                1.013000       0.401106
                                                         0.302300       0.166422

                          4       3    3s                1.013000       0.000000
                                                         0.302300       0.290562

                          5       1    1dx2              0.332000       0.239002
                          5       1    1dxy              0.332000       0.413963
                          5       1    1dxz              0.332000       0.413963
                          5       1    1dy2              0.332000       0.239002
                          5       1    1dyz              0.332000       0.413963
                          5       1    1dz2              0.332000       0.239002

                          6       1    1dx2              1.185000       2.215218
                          6       1    1dxy              1.185000       3.836871
                          6       1    1dxz              1.185000       3.836871
                          6       1    1dy2              1.185000       2.215218
                          6       1    1dyz              1.185000       3.836871
                          6       1    1dz2              1.185000       2.215218

     AE Potential information for                                            ALL

       Description:                                       All-electron potential
                                          Krack, Parrinello, PCCP 2, 2105 (2000)

       Gaussian exponent of the core charge distribution:               8.154466
       Electronic configuration (s p d ...):                           4   4   0


 MOLECULE KIND INFORMATION


 All atoms are their own molecule, skipping detailed information


 TOTAL NUMBERS AND MAXIMUM NUMBERS

  Total number of            - Atomic kinds:                                   1
                             - Atoms:                                          2
                             - Shell sets:                                    12
                             - Shells:                                        18
                             - Primitive Cartesian functions:                 34
                             - Cartesian basis functions:                     50
                             - Spherical basis functions:                     46

  Maximum angular momentum of the orbital basis functions:                     2


 MODULE QUICKSTEP: ATOMIC COORDINATES IN ANGSTROM

   Atom Kind Element         X             Y             Z       Z(eff)     Mass
      1    1 O     8     15.603900     15.000000     15.000000   8.0000  15.9994
      2    1 O     8     14.396100     15.000000     15.000000   8.0000  15.9994



 SCF PARAMETERS         Density guess:                                    ATOMIC
                        --------------------------------------------------------
                        max_scf:                                             500
                        max_scf_history:                                       0
                        max_diis:                                              4
                        --------------------------------------------------------
                        eps_scf:                                        1.00E-06
                        eps_scf_history:                                0.00E+00
                        eps_diis:                                       1.00E-01
                        eps_eigval:                                     1.00E-05
                        --------------------------------------------------------
                        level_shift [a.u.]:                             0.000000
                        added MOs                                        38    0
                        --------------------------------------------------------
                        Mixing method:                            BROYDEN_MIXING
                                                charge density mixing in g-space
                        --------------------------------------------------------
                        No outer SCF

 PW_GRID| Information for grid number                                          1
 PW_GRID| Grid distributed over                                    24 processors
 PW_GRID| Real space group dimensions                                    24    1
 PW_GRID| the grid is blocked:                                                NO
 PW_GRID| Cutoff [a.u.]                                                    250.0
 PW_GRID| spherical cutoff:                                                   NO
 PW_GRID|   Bounds   1           -202     202                Points:         405
 PW_GRID|   Bounds   2           -202     202                Points:         405
 PW_GRID|   Bounds   3           -202     202                Points:         405
 PW_GRID| Volume element (a.u.^3)  0.2743E-02     Volume (a.u.^3)    182205.0337
 PW_GRID| Grid span                                                    FULLSPACE
 PW_GRID|   Distribution                         Average         Max         Min
 PW_GRID|   G-Vectors                          2767921.9     2768175     2767770
 PW_GRID|   G-Rays                                6834.4        6835        6834
 PW_GRID|   Real Space Points                  2767921.9     2788425     2624400

 PW_GRID| Information for grid number                                          2
 PW_GRID| Number of the reference grid                                         1
 PW_GRID| Grid distributed over                                    24 processors
 PW_GRID| Real space group dimensions                                    24    1
 PW_GRID| the grid is blocked:                                                NO
 PW_GRID| Cutoff [a.u.]                                                     83.3
 PW_GRID| spherical cutoff:                                                   NO
 PW_GRID|   Bounds   1           -120     119                Points:         240
 PW_GRID|   Bounds   2           -120     119                Points:         240
 PW_GRID|   Bounds   3           -120     119                Points:         240
 PW_GRID| Volume element (a.u.^3)  0.1318E-01     Volume (a.u.^3)    182205.0337
 PW_GRID| Grid span                                                    FULLSPACE
 PW_GRID|   Distribution                         Average         Max         Min
 PW_GRID|   G-Vectors                           576000.0      576240      575760
 PW_GRID|   G-Rays                                2400.0        2401        2399
 PW_GRID|   Real Space Points                   576000.0      576000      576000

 PW_GRID| Information for grid number                                          3
 PW_GRID| Number of the reference grid                                         1
 PW_GRID| Grid distributed over                                    24 processors
 PW_GRID| Real space group dimensions                                    24    1
 PW_GRID| the grid is blocked:                                                NO
 PW_GRID| Cutoff [a.u.]                                                     27.8
 PW_GRID| spherical cutoff:                                                   NO
 PW_GRID|   Bounds   1            -67      67                Points:         135
 PW_GRID|   Bounds   2            -67      67                Points:         135
 PW_GRID|   Bounds   3            -67      67                Points:         135
 PW_GRID| Volume element (a.u.^3)  0.7406E-01     Volume (a.u.^3)    182205.0337
 PW_GRID| Grid span                                                    FULLSPACE
 PW_GRID|   Distribution                         Average         Max         Min
 PW_GRID|   G-Vectors                           102515.6      102735      102330
 PW_GRID|   G-Rays                                 759.4         761         758
 PW_GRID|   Real Space Points                   102515.6      109350       91125

 PW_GRID| Information for grid number                                          4
 PW_GRID| Number of the reference grid                                         1
 PW_GRID| Grid distributed over                                    24 processors
 PW_GRID| Real space group dimensions                                    24    1
 PW_GRID| the grid is blocked:                                                NO
 PW_GRID| Cutoff [a.u.]                                                      9.3
 PW_GRID| spherical cutoff:                                                   NO
 PW_GRID|   Bounds   1            -40      39                Points:          80
 PW_GRID|   Bounds   2            -40      39                Points:          80
 PW_GRID|   Bounds   3            -40      39                Points:          80
 PW_GRID| Volume element (a.u.^3)  0.3559         Volume (a.u.^3)    182205.0337
 PW_GRID| Grid span                                                    FULLSPACE
 PW_GRID|   Distribution                         Average         Max         Min
 PW_GRID|   G-Vectors                            21333.3       21360       21280
 PW_GRID|   G-Rays                                 266.7         267         266
 PW_GRID|   Real Space Points                    21333.3       25600       19200

 POISSON| Solver                                                         WAVELET
 POISSON| Wavelet| Scaling function                                           40
 POISSON| Periodicity                                                       NONE

 RS_GRID| Information for grid number                                          1
 RS_GRID|   Bounds   1           -202     202                Points:         405
 RS_GRID|   Bounds   2           -202     202                Points:         405
 RS_GRID|   Bounds   3           -202     202                Points:         405
 RS_GRID| Real space distribution over                                  4 groups
 RS_GRID| Real space distribution along direction                              2
 RS_GRID| Border size                                                         33
 RS_GRID| Real space distribution over                                  6 groups
 RS_GRID| Real space distribution along direction                              3
 RS_GRID| Border size                                                         33
 RS_GRID|   Distribution                         Average         Max         Min
 RS_GRID|   Planes                                 167.2         168         167
 RS_GRID|   Distribution                         Average         Max         Min
 RS_GRID|   Planes                                 133.5         134         133

 RS_GRID| Information for grid number                                          2
 RS_GRID|   Bounds   1           -120     119                Points:         240
 RS_GRID|   Bounds   2           -120     119                Points:         240
 RS_GRID|   Bounds   3           -120     119                Points:         240
 RS_GRID| Real space distribution over                                  4 groups
 RS_GRID| Real space distribution along direction                              2
 RS_GRID| Border size                                                         35
 RS_GRID| Real space distribution over                                  6 groups
 RS_GRID| Real space distribution along direction                              3
 RS_GRID| Border size                                                         35
 RS_GRID|   Distribution                         Average         Max         Min
 RS_GRID|   Planes                                 130.0         130         130
 RS_GRID|   Distribution                         Average         Max         Min
 RS_GRID|   Planes                                 110.0         110         110

 RS_GRID| Information for grid number                                          3
 RS_GRID|   Bounds   1            -67      67                Points:         135
 RS_GRID|   Bounds   2            -67      67                Points:         135
 RS_GRID|   Bounds   3            -67      67                Points:         135
 RS_GRID| Real space fully replicated
 RS_GRID| Group size                                                           1

 RS_GRID| Information for grid number                                          4
 RS_GRID|   Bounds   1            -40      39                Points:          80
 RS_GRID|   Bounds   2            -40      39                Points:          80
 RS_GRID|   Bounds   3            -40      39                Points:          80
 RS_GRID| Real space fully replicated
 RS_GRID| Group size                                                           1

  HFX_INFO| Replica ID:                                                        1
  HFX_INFO| FRACTION:                                               0.2500000000
  HFX_INFO| Interaction Potential:                                       COULOMB
  HFX_INFO| EPS_SCHWARZ:                                                 1.0E-10
  HFX_INFO| EPS_SCHWARZ_FORCES                                           1.0E-08
  HFX_INFO| EPS_STORAGE_SCALING:                                         1.0E+00
  HFX_INFO| NBINS:                                                            64
  HFX_INFO| BLOCK_SIZE:                                                        1
  HFX_INFO| Number of periodic shells considered:                           NONE
  HFX_INFO| Number of periodic cells considered:                            NONE

 
 RI-RPA| using GPW style
 

 OVERLAP MATRIX CONDITION NUMBER
 1-Norm Condition Number (Estimate)
   CN : |A|*|A^-1|:  6.454E+000 *  2.103E+003   = 1.357E+004  Log(1-CN):  4.1326
 1-Norm and 2-Norm Condition Numbers using Diagonalization
   CN : |A|*|A^-1|:  6.454E+000 *  2.103E+003   = 1.357E+004  Log(1-CN):  4.1326
   CN : max/min ev:  4.686E+000 /  6.781E-004   = 6.910E+003  Log(2-CN):  3.8395

 Number of electrons:                                                         16
 Number of occupied orbitals:                                                  8
 Number of molecular orbitals:                                                46

 Number of orbital functions:                                                 46
 Number of independent orbital functions:                                     46

 Extrapolation method: initial_guess

 Atomic guess: The first density matrix is obtained in terms of atomic orbitals
               and electronic configurations assigned to each atomic kind

 Guess for atomic kind: O

 Electronic structure
    Total number of core electrons                                          0.00
    Total number of valence electrons                                       8.00
    Total number of electrons                                               8.00
    Multiplicity                                                   not specified
    S      2.00  2.00
    P      4.00


 *******************************************************************************
                  Iteration          Convergence                     Energy [au]
 *******************************************************************************
                          1        0.684364                     -74.339089617110
                          2        0.725475                     -74.331768383214
                          3        0.164048E-01                 -74.445010329461
                          4        0.133197E-02                 -74.445102079973
                          5        0.433662E-04                 -74.445102400705
                          6        0.870320E-06                 -74.445102401090

 Energy components [Hartree]           Total Energy ::          -74.445102401090
                                        Band Energy ::          -40.633506884525
                                     Kinetic Energy ::           74.418788801225
                                   Potential Energy ::         -148.863891202315
                                      Virial (-V/T) ::            2.000353588123
                                        Core Energy ::         -102.956409295290
                                          XC Energy ::           -7.773368920479
                                     Coulomb Energy ::           36.284675814680

 Orbital energies  State     L     Occupation   Energy[a.u.]          Energy[eV]

                       1     0          2.000     -18.768159         -510.707575
                       2     0          2.000      -0.873851          -23.778707

                       1     1          4.000      -0.337372           -9.180347


 Total Electron Density at R=0:                                       298.043610
 Re-scaling the density matrix to get the right number of electrons
                  # Electrons              Trace(P)               Scaling factor
                           16                16.000                        1.000


 SCF WAVEFUNCTION OPTIMIZATION

  Step     Update method      Time    Convergence         Total energy    Change
  ------------------------------------------------------------------------------

  HFX_MEM_INFO| Est. max. program size before HFX [MiB]:                    2136
  HFX_MEM_INFO| Number of cart. primitive ERI's calculated:             10719047
  HFX_MEM_INFO| Number of sph. ERI's calculated:                         1679046
  HFX_MEM_INFO| Number of sph. ERI's stored in-core:                     1679046
  HFX_MEM_INFO| Number of sph. ERI's stored on disk:                           0
  HFX_MEM_INFO| Number of sph. ERI's calculated on the fly:                    0
  HFX_MEM_INFO| Total memory consumption ERI's RAM [MiB]:                      7
  HFX_MEM_INFO| Whereof max-vals [MiB]:                                        1
  HFX_MEM_INFO| Total compression factor ERI's RAM:                         2.02
  HFX_MEM_INFO| Total memory consumption ERI's disk [MiB]:                     0
  HFX_MEM_INFO| Total compression factor ERI's disk:                        0.00
  HFX_MEM_INFO| Size of density/Fock matrix [MiB]:                             0
  HFX_MEM_INFO| Size of buffers [MiB]:                                         0
  HFX_MEM_INFO| Est. max. program size after HFX  [MiB]:                    2643

     1 NoMix/Diag. 0.10E+00    6.4     0.96891181      -150.3755752739 -1.50E+02
     2 Broy./Diag. 0.10E+00    4.7     0.03639832      -149.9775844932  3.98E-01
     3 Broy./Diag. 0.10E+00    4.7     0.06952939      -150.0689928122 -9.14E-02
     4 Broy./Diag. 0.10E+00    4.7     0.00921403      -150.3204722840 -2.51E-01
     5 Broy./Diag. 0.10E+00    4.8     0.00299282      -150.3003389895  2.01E-02
     6 Broy./Diag. 0.10E+00    4.8     0.01506823      -150.1611765644  1.39E-01
     7 Broy./Diag. 0.10E+00    4.9     0.00180396      -150.0674339429  9.37E-02
     8 Broy./Diag. 0.10E+00    5.0     0.00155294      -150.0747211150 -7.29E-03
     9 Broy./Diag. 0.10E+00    5.2     0.00464017      -150.1240515011 -4.93E-02
    10 Broy./Diag. 0.10E+00    5.3     0.00051984      -150.1535114371 -2.95E-02
    11 Broy./Diag. 0.10E+00    5.2     0.00306406      -150.1285850749  2.49E-02
    12 Broy./Diag. 0.10E+00    5.2     0.00145407      -150.1158897314  1.27E-02
    13 Broy./Diag. 0.10E+00    5.2     0.00032987      -150.1196393863 -3.75E-03
    14 Broy./Diag. 0.10E+00    5.2     0.00115489      -150.1253468216 -5.71E-03
    15 Broy./Diag. 0.10E+00    5.2     0.00079149      -150.1332099582 -7.86E-03
    16 Broy./Diag. 0.10E+00    5.2     0.00025012      -150.1359596885 -2.75E-03
    17 Broy./Diag. 0.10E+00    5.3     0.00086081      -150.1319982244  3.96E-03
    18 Broy./Diag. 0.10E+00    5.3     0.00011149      -150.1301573077  1.84E-03
    19 Broy./Diag. 0.10E+00    5.2     0.00011612      -150.1310373889 -8.80E-04
    20 Broy./Diag. 0.10E+00    5.3     0.00047290      -150.1314579021 -4.21E-04
    21 Broy./Diag. 0.10E+00    5.3     0.00009871      -150.1316899932 -2.32E-04
    22 Broy./Diag. 0.10E+00    5.3     0.00011456      -150.1327206681 -1.03E-03
    23 Broy./Diag. 0.10E+00    5.3     0.00003006      -150.1331202299 -4.00E-04
    24 Broy./Diag. 0.10E+00    5.3     0.00007525      -150.1326658018  4.54E-04
    25 Broy./Diag. 0.10E+00    5.3     0.00004381      -150.1323183220  3.47E-04
    26 Broy./Diag. 0.10E+00    5.3     0.00007607      -150.1319718581  3.46E-04
    27 Broy./Diag. 0.10E+00    5.3     0.00008705      -150.1314228933  5.49E-04
    28 Broy./Diag. 0.10E+00    5.3     0.00004373      -150.1309874735  4.35E-04
    29 Broy./Diag. 0.10E+00    5.3     0.00003672      -150.1309738131  1.37E-05
    30 Broy./Diag. 0.10E+00    5.3     0.00004180      -150.1310643369 -9.05E-05
    31 Broy./Diag. 0.10E+00    5.3     0.00004014      -150.1311555738 -9.12E-05
    32 Broy./Diag. 0.10E+00    5.3     0.00003350      -150.1311988614 -4.33E-05
    33 Broy./Diag. 0.10E+00    5.3     0.00004125      -150.1312127699 -1.39E-05
    34 Broy./Diag. 0.10E+00    5.5     0.00003869      -150.1312244481 -1.17E-05
    35 Broy./Diag. 0.10E+00    5.3     0.00004624      -150.1312243377  1.10E-07
    36 Broy./Diag. 0.10E+00    5.3     0.00007525      -150.1312232427  1.09E-06
    37 Broy./Diag. 0.10E+00    5.3     0.00011287      -150.1311990552  2.42E-05
    38 Broy./Diag. 0.10E+00    5.3     0.00017988      -150.1312058683 -6.81E-06
    39 Broy./Diag. 0.10E+00    5.4     0.00027294      -150.1312125266 -6.66E-06
    40 Broy./Diag. 0.10E+00    5.3     0.00042533      -150.1312132300 -7.03E-07
    41 Broy./Diag. 0.10E+00    5.3     0.00066900      -150.1312152060 -1.98E-06
    42 Broy./Diag. 0.10E+00    5.4     0.00105464      -150.1312167774 -1.57E-06
    43 Broy./Diag. 0.10E+00    5.3     0.00166742      -150.1312269304 -1.02E-05
    44 Broy./Diag. 0.10E+00    5.3     0.00263929      -150.1312311593 -4.23E-06
    45 Broy./Diag. 0.10E+00    5.3     0.00415829      -150.1312361486 -4.99E-06
    46 Broy./Diag. 0.10E+00    5.3     0.00653722      -150.1311602283  7.59E-05
    47 Broy./Diag. 0.10E+00    5.3     0.01028529      -150.1311589895  1.24E-06
    48 Broy./Diag. 0.10E+00    5.3     0.01613872      -150.1311373485  2.16E-05
    49 Broy./Diag. 0.10E+00    5.3     0.02519209      -150.1310871294  5.02E-05
    50 Broy./Diag. 0.10E+00    5.3     0.03903225      -150.1309809367  1.06E-04
    51 Broy./Diag. 0.10E+00    5.3     0.05932424      -150.1306837401  2.97E-04
    52 Broy./Diag. 0.10E+00    5.3     0.08615652      -150.1299658754  7.18E-04
    53 Broy./Diag. 0.10E+00    5.3     0.11296420      -150.1282070372  1.76E-03
    54 Broy./Diag. 0.10E+00    5.3     0.14438417      -150.1242592182  3.95E-03
    55 Broy./Diag. 0.10E+00    5.3     0.20730598      -150.1162980534  7.96E-03
    56 Broy./Diag. 0.10E+00    5.3     0.22734020      -150.1036603900  1.26E-02
    57 Broy./Diag. 0.10E+00    5.4     0.19388262      -150.0880445511  1.56E-02
    58 Broy./Diag. 0.10E+00    5.3     0.13678616      -150.0733237261  1.47E-02
    59 Broy./Diag. 0.10E+00    5.3     0.10725804      -150.0621411361  1.12E-02
    60 Broy./Diag. 0.10E+00    5.3     0.09267641      -150.0548202948  7.32E-03
    61 Broy./Diag. 0.10E+00    5.3     0.07406592      -150.0505302307  4.29E-03
    62 Broy./Diag. 0.10E+00    5.3     0.05692094      -150.0482425411  2.29E-03
    63 Broy./Diag. 0.10E+00    5.3     0.04303061      -150.0475778899  6.65E-04
    64 Broy./Diag. 0.10E+00    5.3     0.03388953      -150.0511265299 -3.55E-03
    65 Broy./Diag. 0.10E+00    5.3     0.03317596      -150.0716922919 -2.06E-02
    66 Broy./Diag. 0.10E+00    5.3     0.02838626      -150.0875774579 -1.59E-02
    67 Broy./Diag. 0.10E+00    5.2     0.03348042      -150.1239959319 -3.64E-02
    68 Broy./Diag. 0.10E+00    5.3     0.05549404      -150.2343905544 -1.10E-01
    69 Broy./Diag. 0.10E+00    5.4     0.11232219      -150.4173803728 -1.83E-01
    70 Broy./Diag. 0.10E+00    5.3     0.10673693      -150.4766941141 -5.93E-02
    71 Broy./Diag. 0.10E+00    5.3     0.10206880      -150.3717527588  1.05E-01
    72 Broy./Diag. 0.10E+00    5.3     0.11314602      -150.2432945147  1.28E-01
    73 Broy./Diag. 0.10E+00    5.3     0.10736834      -150.2183647192  2.49E-02
    74 Broy./Diag. 0.10E+00    5.3     0.07993266      -150.2154810885  2.88E-03
    75 Broy./Diag. 0.10E+00    5.3     0.15129263      -150.2901325448 -7.47E-02
    76 Broy./Diag. 0.10E+00    5.3     0.10876028      -150.3229302829 -3.28E-02
    77 Broy./Diag. 0.10E+00    5.3     0.32012792      -150.2169086669  1.06E-01
    78 Broy./Diag. 0.10E+00    5.3     0.09246297      -150.1712588541  4.56E-02
    79 Broy./Diag. 0.10E+00    5.3     0.02448410      -150.1152018776  5.61E-02
    80 Broy./Diag. 0.10E+00    5.3     0.00432981      -150.1055941893  9.61E-03
    81 Broy./Diag. 0.10E+00    5.4     0.04237524      -150.0750660313  3.05E-02
    82 Broy./Diag. 0.10E+00    5.3     0.08296667      -150.0763576504 -1.29E-03
    83 Broy./Diag. 0.10E+00    5.3     0.40769067      -150.1644684142 -8.81E-02
    84 Broy./Diag. 0.10E+00    5.3     0.42469052      -150.3178849260 -1.53E-01
    85 Broy./Diag. 0.10E+00    5.3     0.11555529      -150.1871928222  1.31E-01
    86 Broy./Diag. 0.10E+00    5.3     0.28746966      -150.1184882161  6.87E-02
    87 Broy./Diag. 0.10E+00    5.3     0.29267634      -150.1092808638  9.21E-03
    88 Broy./Diag. 0.10E+00    5.2     0.06605704      -150.1979746947 -8.87E-02
    89 Broy./Diag. 0.10E+00    5.3     0.05011375      -150.3226306017 -1.25E-01
    90 Broy./Diag. 0.10E+00    5.2     0.04622933      -150.3683192785 -4.57E-02
    91 Broy./Diag. 0.10E+00    5.2     0.04358918      -150.3714271824 -3.11E-03
    92 Broy./Diag. 0.10E+00    5.2     0.07467284      -150.3945298673 -2.31E-02
    93 Broy./Diag. 0.10E+00    5.3     0.24102934      -150.3927860464  1.74E-03
    94 Broy./Diag. 0.10E+00    5.2     0.23483571      -150.3938863979 -1.10E-03
    95 Broy./Diag. 0.10E+00    5.2     0.06447237      -150.3665361475  2.74E-02
    96 Broy./Diag. 0.10E+00    5.3     0.04194459      -150.3665015979  3.45E-05
    97 Broy./Diag. 0.10E+00    5.3     0.08729223      -150.3948533792 -2.84E-02
    98 Broy./Diag. 0.10E+00    5.3     0.09003056      -150.3911077050  3.75E-03
    99 Broy./Diag. 0.10E+00    5.2     0.16861886      -150.3470714815  4.40E-02
   100 Broy./Diag. 0.10E+00    5.2     0.21413761      -150.3457797633  1.29E-03
   101 Broy./Diag. 0.10E+00    5.3     0.17501858      -150.3857980144 -4.00E-02
   102 Broy./Diag. 0.10E+00    5.2     0.07328293      -150.3943486254 -8.55E-03
   103 Broy./Diag. 0.10E+00    5.4     0.02866857      -150.3517270428  4.26E-02
   104 Broy./Diag. 0.10E+00    5.4     0.16545268      -150.3048354569  4.69E-02
   105 Broy./Diag. 0.10E+00    5.4     0.31000405      -150.2996640970  5.17E-03
   106 Broy./Diag. 0.10E+00    5.3     0.31987606      -150.2872897715  1.24E-02
   107 Broy./Diag. 0.10E+00    5.2     0.15835866      -150.2859914199  1.30E-03
   108 Broy./Diag. 0.10E+00    5.2     0.10299047      -150.2903234068 -4.33E-03
   109 Broy./Diag. 0.10E+00    5.3     0.07748923      -150.3013610562 -1.10E-02
   110 Broy./Diag. 0.10E+00    5.4     0.05100699      -150.2979389302  3.42E-03
   111 Broy./Diag. 0.10E+00    5.3     0.03982715      -150.2904791557  7.46E-03
   112 Broy./Diag. 0.10E+00    5.3     0.04757680      -150.2766752633  1.38E-02
   113 Broy./Diag. 0.10E+00    5.3     0.06563567      -150.2307450077  4.59E-02
   114 Broy./Diag. 0.10E+00    5.3     0.05781424      -150.1655168763  6.52E-02
   115 Broy./Diag. 0.10E+00    5.3     0.07354884      -150.1568910622  8.63E-03
   116 Broy./Diag. 0.10E+00    5.3     0.11234908      -150.1865551614 -2.97E-02
   117 Broy./Diag. 0.10E+00    5.3     0.13914622      -150.2079722453 -2.14E-02
   118 Broy./Diag. 0.10E+00    5.3     0.16123643      -150.2033096188  4.66E-03
   119 Broy./Diag. 0.10E+00    5.3     0.22319902      -150.1904409331  1.29E-02
   120 Broy./Diag. 0.10E+00    5.3     0.15854303      -150.1877593680  2.68E-03
   121 Broy./Diag. 0.10E+00    5.3     0.16151134      -150.1641005166  2.37E-02
   122 Broy./Diag. 0.10E+00    5.3     0.04562451      -150.1556068939  8.49E-03
   123 Broy./Diag. 0.10E+00    5.3     0.03827049      -150.1452725881  1.03E-02
   124 Broy./Diag. 0.10E+00    5.3     0.04676858      -150.1304867240  1.48E-02
   125 Broy./Diag. 0.10E+00    5.3     0.07538690      -150.1299557362  5.31E-04
   126 Broy./Diag. 0.10E+00    5.3     0.02563458      -150.1275187165  2.44E-03
   127 Broy./Diag. 0.10E+00    5.4     0.03116843      -150.1162830849  1.12E-02
   128 Broy./Diag. 0.10E+00    5.5     0.14566465      -150.0987608321  1.75E-02
   129 Broy./Diag. 0.10E+00    5.3     0.30366778      -150.0527974544  4.60E-02
   130 Broy./Diag. 0.10E+00    5.3     0.12960646      -150.0536749719 -8.78E-04
   131 Broy./Diag. 0.10E+00    5.3     0.02104625      -150.0371741130  1.65E-02
   132 Broy./Diag. 0.10E+00    5.3     0.23822751      -150.0050225738  3.22E-02
   133 Broy./Diag. 0.10E+00    5.4     0.36488328      -150.0293998965 -2.44E-02
   134 Broy./Diag. 0.10E+00    5.3     0.28293522      -150.0177054818  1.17E-02
   135 Broy./Diag. 0.10E+00    5.3     0.04541131      -150.0445325868 -2.68E-02
   136 Broy./Diag. 0.10E+00    5.3     0.20852437      -150.0888193617 -4.43E-02
   137 Broy./Diag. 0.10E+00    5.4     0.26425245      -150.1211318953 -3.23E-02
   138 Broy./Diag. 0.10E+00    5.3     0.20145081      -150.1283043910 -7.17E-03
   139 Broy./Diag. 0.10E+00    5.4     0.07478736      -150.1432772681 -1.50E-02
   140 Broy./Diag. 0.10E+00    5.3     0.02520874      -150.1644809165 -2.12E-02
   141 Broy./Diag. 0.10E+00    5.3     0.01389369      -150.1928808541 -2.84E-02
   142 Broy./Diag. 0.10E+00    5.4     0.01531783      -150.2264838379 -3.36E-02
   143 Broy./Diag. 0.10E+00    5.3     0.20581049      -150.2109201653  1.56E-02
   144 Broy./Diag. 0.10E+00    5.4     0.35496001      -150.2304552434 -1.95E-02
   145 Broy./Diag. 0.10E+00    5.3     0.26742342      -150.2404985121 -1.00E-02
   146 Broy./Diag. 0.10E+00    5.3     0.06190713      -150.2347863942  5.71E-03
   147 Broy./Diag. 0.10E+00    5.4     0.09342371      -150.2297745426  5.01E-03
   148 Broy./Diag. 0.10E+00    5.3     0.20368017      -150.2726178915 -4.28E-02
   149 Broy./Diag. 0.10E+00    5.3     0.27112138      -150.2900241496 -1.74E-02
   150 Broy./Diag. 0.10E+00    5.3     0.20703417      -150.2860530443  3.97E-03
   151 Broy./Diag. 0.10E+00    5.3     0.01796537      -150.2753321854  1.07E-02
   152 Broy./Diag. 0.10E+00    5.3     0.13722479      -150.2656361533  9.70E-03
   153 Broy./Diag. 0.10E+00    5.3     0.20579089      -150.2667273248 -1.09E-03
   154 Broy./Diag. 0.10E+00    5.3     0.29236719      -150.2297465379  3.70E-02
   155 Broy./Diag. 0.10E+00    5.3     0.17453712      -150.2263370467  3.41E-03
   156 Broy./Diag. 0.10E+00    5.4     0.10964308      -150.2426173859 -1.63E-02
   157 Broy./Diag. 0.10E+00    5.5     0.07217008      -150.2478678950 -5.25E-03
   158 Broy./Diag. 0.10E+00    5.4     0.05170397      -150.2510350052 -3.17E-03
   159 Broy./Diag. 0.10E+00    5.4     0.01796935      -150.2307076242  2.03E-02
   160 Broy./Diag. 0.10E+00    5.4     0.02128593      -150.2128748939  1.78E-02
   161 Broy./Diag. 0.10E+00    5.4     0.06025677      -150.1834072929  2.95E-02
   162 Broy./Diag. 0.10E+00    5.3     0.10254628      -150.1630091231  2.04E-02
   163 Broy./Diag. 0.10E+00    5.3     0.13688983      -150.1603533349  2.66E-03
   164 Broy./Diag. 0.10E+00    5.3     0.19080111      -150.1515899353  8.76E-03
   165 Broy./Diag. 0.10E+00    5.3     0.25445065      -150.1374196564  1.42E-02
   166 Broy./Diag. 0.10E+00    5.4     0.23357771      -150.1257829543  1.16E-02
   167 Broy./Diag. 0.10E+00    5.4     0.17363781      -150.1090908636  1.67E-02
   168 Broy./Diag. 0.10E+00    5.3     0.13193960      -150.0885705935  2.05E-02
   169 Broy./Diag. 0.10E+00    5.3     0.11471779      -150.0706285482  1.79E-02
   170 Broy./Diag. 0.10E+00    5.3     0.08585411      -150.0600354234  1.06E-02
   171 Broy./Diag. 0.10E+00    5.3     0.06607783      -150.0370460021  2.30E-02
   172 Broy./Diag. 0.10E+00    5.4     0.04582718      -150.0187056315  1.83E-02
   173 Broy./Diag. 0.10E+00    5.3     0.02252144      -149.9891094680  2.96E-02
   174 Broy./Diag. 0.10E+00    5.3     0.03884737      -149.9988893162 -9.78E-03
   175 Broy./Diag. 0.10E+00    5.4     0.05869718      -150.0919321464 -9.30E-02
   176 Broy./Diag. 0.10E+00    5.3     0.08000221      -150.1089088393 -1.70E-02
   177 Broy./Diag. 0.10E+00    5.3     0.08814138      -150.1481083029 -3.92E-02
   178 Broy./Diag. 0.10E+00    5.3     0.10228284      -150.1558292908 -7.72E-03
   179 Broy./Diag. 0.10E+00    5.3     0.12885774      -150.1542642077  1.57E-03
   180 Broy./Diag. 0.10E+00    5.4     0.16935390      -150.1596984663 -5.43E-03
   181 Broy./Diag. 0.10E+00    5.3     0.22059650      -150.1488807562  1.08E-02
   182 Broy./Diag. 0.10E+00    5.3     0.17920995      -150.1377840735  1.11E-02
   183 Broy./Diag. 0.10E+00    5.3     0.13377842      -150.1208647416  1.69E-02
   184 Broy./Diag. 0.10E+00    5.3     0.10892907      -150.1010354069  1.98E-02
   185 Broy./Diag. 0.10E+00    5.3     0.07942232      -150.1005316842  5.04E-04
   186 Broy./Diag. 0.10E+00    5.3     0.07609306      -150.1050608108 -4.53E-03
   187 Broy./Diag. 0.10E+00    5.3     0.07255074      -150.0991652968  5.90E-03
   188 Broy./Diag. 0.10E+00    5.3     0.08187107      -150.0869620889  1.22E-02
   189 Broy./Diag. 0.10E+00    5.3     0.09528007      -150.0837273391  3.23E-03
   190 Broy./Diag. 0.10E+00    5.2     0.12115093      -150.0792778815  4.45E-03
   191 Broy./Diag. 0.10E+00    5.2     0.12709050      -150.1026037496 -2.33E-02
   192 Broy./Diag. 0.10E+00    5.2     0.09317137      -150.0953703616  7.23E-03
   193 Broy./Diag. 0.10E+00    5.3     0.06415507      -150.1286046352 -3.32E-02
   194 Broy./Diag. 0.10E+00    5.3     0.09138428      -150.1314310613 -2.83E-03
   195 Broy./Diag. 0.10E+00    5.2     0.10731356      -150.1381071405 -6.68E-03
   196 Broy./Diag. 0.10E+00    5.2     0.16637077      -150.1387371414 -6.30E-04
   197 Broy./Diag. 0.10E+00    5.5     0.19489566      -150.1274278074  1.13E-02
   198 Broy./Diag. 0.10E+00    5.3     0.19414169      -150.1018108234  2.56E-02
   199 Broy./Diag. 0.10E+00    5.3     0.12797827      -150.0825513105  1.93E-02
   200 Broy./Diag. 0.10E+00    5.3     0.08165989      -150.0671687171  1.54E-02
   201 Broy./Diag. 0.10E+00    5.3     0.05657442      -150.0576346477  9.53E-03
   202 Broy./Diag. 0.10E+00    5.3     0.05380749      -150.0647958356 -7.16E-03
   203 Broy./Diag. 0.10E+00    5.3     0.03452043      -150.0938253349 -2.90E-02
   204 Broy./Diag. 0.10E+00    5.3     0.02055202      -150.1302160606 -3.64E-02
   205 Broy./Diag. 0.10E+00    5.3     0.07957668      -150.1672139126 -3.70E-02
   206 Broy./Diag. 0.10E+00    5.3     0.24625221      -150.1893896380 -2.22E-02
   207 Broy./Diag. 0.10E+00    5.3     0.30335924      -150.2200293141 -3.06E-02
   208 Broy./Diag. 0.10E+00    5.3     0.16963149      -150.2201128484 -8.35E-05
   209 Broy./Diag. 0.10E+00    5.3     0.03518630      -150.1968724627  2.32E-02
   210 Broy./Diag. 0.10E+00    5.3     0.19254539      -150.2165707226 -1.97E-02
   211 Broy./Diag. 0.10E+00    5.3     0.34900361      -150.2505511625 -3.40E-02
   212 Broy./Diag. 0.10E+00    5.3     0.29456848      -150.1928226395  5.77E-02
   213 Broy./Diag. 0.10E+00    5.3     0.15182626      -150.2210921671 -2.83E-02
   214 Broy./Diag. 0.10E+00    5.3     0.08975573      -150.1937617773  2.73E-02
   215 Broy./Diag. 0.10E+00    5.3     0.06862043      -150.1956757559 -1.91E-03
   216 Broy./Diag. 0.10E+00    5.3     0.03969224      -150.2096677144 -1.40E-02
   217 Broy./Diag. 0.10E+00    5.3     0.00713833      -150.2194195231 -9.75E-03
   218 Broy./Diag. 0.10E+00    5.3     0.02531062      -150.2180370041  1.38E-03
   219 Broy./Diag. 0.10E+00    5.3     0.04386430      -150.2009642077  1.71E-02
   220 Broy./Diag. 0.10E+00    5.3     0.06829425      -150.1899220918  1.10E-02
   221 Broy./Diag. 0.10E+00    5.3     0.10179872      -150.1839204306  6.00E-03
   222 Broy./Diag. 0.10E+00    5.3     0.13017772      -150.1743028592  9.62E-03
   223 Broy./Diag. 0.10E+00    5.4     0.16741540      -150.1686903842  5.61E-03
   224 Broy./Diag. 0.10E+00    5.3     0.21815838      -150.1631767320  5.51E-03
   225 Broy./Diag. 0.10E+00    5.3     0.21523202      -150.1526572414  1.05E-02
   226 Broy./Diag. 0.10E+00    5.4     0.17089658      -150.1403038833  1.24E-02
   227 Broy./Diag. 0.10E+00    5.3     0.12262370      -150.1235190559  1.68E-02
   228 Broy./Diag. 0.10E+00    5.2     0.09519731      -150.1064867805  1.70E-02
   229 Broy./Diag. 0.10E+00    5.2     0.09101597      -150.0901977543  1.63E-02
   230 Broy./Diag. 0.10E+00    5.3     0.07164293      -150.0779980878  1.22E-02
   231 Broy./Diag. 0.10E+00    5.3     0.05499865      -150.0652145393  1.28E-02
   232 Broy./Diag. 0.10E+00    5.3     0.04391816      -150.0385923342  2.66E-02
   233 Broy./Diag. 0.10E+00    5.3     0.03466601      -150.0561346949 -1.75E-02
   234 Broy./Diag. 0.10E+00    5.3     0.05623446      -150.1415964573 -8.55E-02
   235 Broy./Diag. 0.10E+00    5.3     0.08435444      -150.2170774528 -7.55E-02
   236 Broy./Diag. 0.10E+00    5.3     0.10531306      -150.2394288362 -2.24E-02
   237 Broy./Diag. 0.10E+00    5.3     0.11064292      -150.2110284643  2.84E-02
   238 Broy./Diag. 0.10E+00    5.3     0.08605747      -150.1691988940  4.18E-02
   239 Broy./Diag. 0.10E+00    5.3     0.06708460      -150.1681326274  1.07E-03
   240 Broy./Diag. 0.10E+00    5.3     0.09352657      -150.2060246635 -3.79E-02
   241 Broy./Diag. 0.10E+00    5.3     0.17146071      -150.2669159559 -6.09E-02
   242 Broy./Diag. 0.10E+00    5.3     0.16101267      -150.3009575450 -3.40E-02
   243 Broy./Diag. 0.10E+00    5.3     0.18086595      -150.2782681319  2.27E-02
   244 Broy./Diag. 0.10E+00    5.3     0.05841372      -150.2417243882  3.65E-02
   245 Broy./Diag. 0.10E+00    5.3     0.04246131      -150.2079380635  3.38E-02
   246 Broy./Diag. 0.10E+00    5.4     0.03618796      -150.2021488080  5.79E-03
   247 Broy./Diag. 0.10E+00    5.2     0.02357462      -150.1988144579  3.33E-03
   248 Broy./Diag. 0.10E+00    5.3     0.03266567      -150.1931193798  5.70E-03
   249 Broy./Diag. 0.10E+00    5.2     0.19627022      -150.2228803449 -2.98E-02
   250 Broy./Diag. 0.10E+00    5.3     0.36586020      -150.2513791015 -2.85E-02
   251 Broy./Diag. 0.10E+00    5.2     0.14796140      -150.3579225935 -1.07E-01
   252 Broy./Diag. 0.10E+00    5.3     0.03514775      -150.3299347051  2.80E-02
   253 Broy./Diag. 0.10E+00    5.2     0.05152694      -150.3189124678  1.10E-02
   254 Broy./Diag. 0.10E+00    5.2     0.15867569      -150.2873081180  3.16E-02
   255 Broy./Diag. 0.10E+00    5.2     0.28892819      -150.2855015044  1.81E-03
   256 Broy./Diag. 0.10E+00    5.3     0.30729472      -150.2586932337  2.68E-02
   257 Broy./Diag. 0.10E+00    5.3     0.07207845      -150.3199740398 -6.13E-02
   258 Broy./Diag. 0.10E+00    5.3     0.03615424      -150.3617450685 -4.18E-02
   259 Broy./Diag. 0.10E+00    5.2     0.04956748      -150.3561830901  5.56E-03
   260 Broy./Diag. 0.10E+00    5.2     0.03131139      -150.3196665109  3.65E-02
   261 Broy./Diag. 0.10E+00    5.3     0.02212740      -150.2979021240  2.18E-02
   262 Broy./Diag. 0.10E+00    5.2     0.08144932      -150.2661284280  3.18E-02
   263 Broy./Diag. 0.10E+00    5.3     0.12564499      -150.2803990961 -1.43E-02
   264 Broy./Diag. 0.10E+00    5.3     0.24657241      -150.2685285090  1.19E-02
   265 Broy./Diag. 0.10E+00    5.3     0.13743838      -150.2836052779 -1.51E-02
   266 Broy./Diag. 0.10E+00    5.2     0.01016656      -150.2626802112  2.09E-02
   267 Broy./Diag. 0.10E+00    5.2     0.05405714      -150.2460490512  1.66E-02
   268 Broy./Diag. 0.10E+00    5.3     0.09679704      -150.2510942340 -5.05E-03
   269 Broy./Diag. 0.10E+00    5.2     0.11704397      -150.2711364084 -2.00E-02
   270 Broy./Diag. 0.10E+00    5.2     0.05525973      -150.2700048731  1.13E-03
   271 Broy./Diag. 0.10E+00    5.2     0.02303411      -150.2561961043  1.38E-02
   272 Broy./Diag. 0.10E+00    5.3     0.03907441      -150.2118055287  4.44E-02
   273 Broy./Diag. 0.10E+00    5.4     0.02471726      -150.1771287278  3.47E-02
   274 Broy./Diag. 0.10E+00    5.2     0.00701071      -150.1538722838  2.33E-02
   275 Broy./Diag. 0.10E+00    5.2     0.04408534      -150.1482393263  5.63E-03
   276 Broy./Diag. 0.10E+00    5.2     0.04807367      -150.1509526141 -2.71E-03
   277 Broy./Diag. 0.10E+00    5.2     0.03551686      -150.1626418716 -1.17E-02
   278 Broy./Diag. 0.10E+00    5.2     0.00796393      -150.1721852384 -9.54E-03
   279 Broy./Diag. 0.10E+00    5.2     0.00262128      -150.1708988257  1.29E-03
   280 Broy./Diag. 0.10E+00    5.3     0.00199437      -150.1752977977 -4.40E-03
   281 Broy./Diag. 0.10E+00    5.3     0.00337479      -150.1877611356 -1.25E-02
   282 Broy./Diag. 0.10E+00    5.3     0.00373658      -150.1809650435  6.80E-03
   283 Broy./Diag. 0.10E+00    5.3     0.00374188      -150.1450472310  3.59E-02
   284 Broy./Diag. 0.10E+00    5.3     0.00449498      -150.1274544794  1.76E-02
   285 Broy./Diag. 0.10E+00    5.3     0.00149309      -150.1263928806  1.06E-03
   286 Broy./Diag. 0.10E+00    5.3     0.00512356      -150.1274252691 -1.03E-03
   287 Broy./Diag. 0.10E+00    5.3     0.00147295      -150.1300777312 -2.65E-03
   288 Broy./Diag. 0.10E+00    5.3     0.00047837      -150.1324183580 -2.34E-03
   289 Broy./Diag. 0.10E+00    5.3     0.00270450      -150.1331372402 -7.19E-04
   290 Broy./Diag. 0.10E+00    5.4     0.00095880      -150.1368890283 -3.75E-03
   291 Broy./Diag. 0.10E+00    5.3     0.00022215      -150.1375862389 -6.97E-04
   292 Broy./Diag. 0.10E+00    5.3     0.00113215      -150.1370777419  5.08E-04
   293 Broy./Diag. 0.10E+00    5.2     0.00135017      -150.1366886792  3.89E-04
   294 Broy./Diag. 0.10E+00    5.4     0.00137821      -150.1346573977  2.03E-03
   295 Broy./Diag. 0.10E+00    5.3     0.00114639      -150.1333854474  1.27E-03
   296 Broy./Diag. 0.10E+00    5.3     0.00065988      -150.1333343270  5.11E-05
   297 Broy./Diag. 0.10E+00    5.4     0.00204538      -150.1327378919  5.96E-04
   298 Broy./Diag. 0.10E+00    5.3     0.00116757      -150.1325145774  2.23E-04
   299 Broy./Diag. 0.10E+00    5.3     0.00056127      -150.1324899299  2.46E-05
   300 Broy./Diag. 0.10E+00    5.3     0.00032669      -150.1333236082 -8.34E-04
   301 Broy./Diag. 0.10E+00    5.3     0.00017487      -150.1340503791 -7.27E-04
   302 Broy./Diag. 0.10E+00    5.3     0.00054873      -150.1331380274  9.12E-04
   303 Broy./Diag. 0.10E+00    5.3     0.00028213      -150.1320661315  1.07E-03
   304 Broy./Diag. 0.10E+00    5.3     0.00007935      -150.1316656573  4.00E-04
   305 Broy./Diag. 0.10E+00    5.3     0.00054052      -150.1317148901 -4.92E-05
   306 Broy./Diag. 0.10E+00    5.3     0.00010741      -150.1313728535  3.42E-04
   307 Broy./Diag. 0.10E+00    5.3     0.00023491      -150.1313984861 -2.56E-05
   308 Broy./Diag. 0.10E+00    5.3     0.00013907      -150.1314146239 -1.61E-05
   309 Broy./Diag. 0.10E+00    5.3     0.00016223      -150.1312529136  1.62E-04
   310 Broy./Diag. 0.10E+00    5.3     0.00004544      -150.1312336940  1.92E-05
   311 Broy./Diag. 0.10E+00    5.3     0.00002433      -150.1312835821 -4.99E-05
   312 Broy./Diag. 0.10E+00    5.3     0.00008861      -150.1313790727 -9.55E-05
   313 Broy./Diag. 0.10E+00    5.3     0.00004745      -150.1313686912  1.04E-05
   314 Broy./Diag. 0.10E+00    5.3     0.00005032      -150.1313276899  4.10E-05
   315 Broy./Diag. 0.10E+00    5.3     0.00004665      -150.1313701753 -4.25E-05
   316 Broy./Diag. 0.10E+00    5.2     0.00007267      -150.1313523156  1.79E-05
   317 Broy./Diag. 0.10E+00    5.3     0.00003560      -150.1312117896  1.41E-04
   318 Broy./Diag. 0.10E+00    5.3     0.00004482      -150.1311127018  9.91E-05
   319 Broy./Diag. 0.10E+00    5.3     0.00002862      -150.1311182839 -5.58E-06
   320 Broy./Diag. 0.10E+00    5.4     0.00002678      -150.1311331690 -1.49E-05
   321 Broy./Diag. 0.10E+00    5.3     0.00003326      -150.1311635078 -3.03E-05
   322 Broy./Diag. 0.10E+00    5.3     0.00004790      -150.1311858333 -2.23E-05
   323 Broy./Diag. 0.10E+00    5.3     0.00004669      -150.1311863320 -4.99E-07
   324 Broy./Diag. 0.10E+00    5.3     0.00000804      -150.1311724172  1.39E-05
   325 Broy./Diag. 0.10E+00    5.2     0.00002838      -150.1311739894 -1.57E-06
   326 Broy./Diag. 0.10E+00    5.3     0.00008047      -150.1311777016 -3.71E-06
   327 Broy./Diag. 0.10E+00    5.3     0.00011911      -150.1311709075  6.79E-06
   328 Broy./Diag. 0.10E+00    5.3     0.00018319      -150.1311598963  1.10E-05
   329 Broy./Diag. 0.10E+00    5.3     0.00029197      -150.1311596938  2.03E-07
   330 Broy./Diag. 0.10E+00    5.3     0.00045195      -150.1311667478 -7.05E-06
   331 Broy./Diag. 0.10E+00    5.3     0.00069610      -150.1311742287 -7.48E-06
   332 Broy./Diag. 0.10E+00    5.2     0.00101603      -150.1311654520  8.78E-06
   333 Broy./Diag. 0.10E+00    5.3     0.00163898      -150.1311650504  4.02E-07
   334 Broy./Diag. 0.10E+00    5.3     0.00261998      -150.1311782287 -1.32E-05
   335 Broy./Diag. 0.10E+00    5.3     0.00424414      -150.1311933545 -1.51E-05
   336 Broy./Diag. 0.10E+00    5.3     0.00678710      -150.1311945720 -1.22E-06
   337 Broy./Diag. 0.10E+00    5.5     0.01075139      -150.1311267756  6.78E-05
   338 Broy./Diag. 0.10E+00    5.3     0.01698277      -150.1310598819  6.69E-05
   339 Broy./Diag. 0.10E+00    5.3     0.02653146      -150.1310254348  3.44E-05
   340 Broy./Diag. 0.10E+00    5.2     0.04086795      -150.1309528523  7.26E-05
   341 Broy./Diag. 0.10E+00    5.3     0.06120342      -150.1305875967  3.65E-04
   342 Broy./Diag. 0.10E+00    5.3     0.08812901      -150.1297627425  8.25E-04
   343 Broy./Diag. 0.10E+00    5.4     0.11346418      -150.1278560318  1.91E-03
   344 Broy./Diag. 0.10E+00    5.3     0.15431578      -150.1235780793  4.28E-03
   345 Broy./Diag. 0.10E+00    5.3     0.21544543      -150.1152111181  8.37E-03
   346 Broy./Diag. 0.10E+00    5.3     0.22958675      -150.1019878160  1.32E-02
   347 Broy./Diag. 0.10E+00    5.3     0.19124143      -150.0861350126  1.59E-02
   348 Broy./Diag. 0.10E+00    5.2     0.13237294      -150.0716081603  1.45E-02
   349 Broy./Diag. 0.10E+00    5.3     0.10492325      -150.0609343749  1.07E-02
   350 Broy./Diag. 0.10E+00    5.3     0.09056674      -150.0539842509  6.95E-03
   351 Broy./Diag. 0.10E+00    5.3     0.07270541      -150.0498916462  4.09E-03
   352 Broy./Diag. 0.10E+00    5.3     0.05674841      -150.0476337035  2.26E-03
   353 Broy./Diag. 0.10E+00    5.3     0.04609775      -150.0467619054  8.72E-04
   354 Broy./Diag. 0.10E+00    5.3     0.05204912      -150.0494467366 -2.68E-03
   355 Broy./Diag. 0.10E+00    5.3     0.08917884      -150.0610481595 -1.16E-02
   356 Broy./Diag. 0.10E+00    5.2     0.13309870      -150.0677331283 -6.68E-03
   357 Broy./Diag. 0.10E+00    5.3     0.16095268      -150.0629680527  4.77E-03
   358 Broy./Diag. 0.10E+00    5.3     0.13343492      -150.0514005989  1.16E-02
   359 Broy./Diag. 0.10E+00    5.4     0.10262058      -150.0698816170 -1.85E-02
   360 Broy./Diag. 0.10E+00    5.3     0.07986634      -150.1868149295 -1.17E-01
   361 Broy./Diag. 0.10E+00    5.4     0.02235000      -150.3206965359 -1.34E-01
   362 Broy./Diag. 0.10E+00    5.3     0.13940392      -150.3391769385 -1.85E-02
[...]
 *** edges of the unit cell: wrong results in WAVELET solver           ***

   460 Broy./Diag. 0.10E+00    5.3     0.21072964      -150.3270163334 -1.92E-02

 *** WARNING in pw/ps_wavelet_methods.F:238 :: Density non-zero on the ***
 *** edges of the unit cell: wrong results in WAVELET solver           ***

   461 Broy./Diag. 0.10E+00    5.3     0.08803843      -150.3856695685 -5.87E-02

 *** WARNING in pw/ps_wavelet_methods.F:238 :: Density non-zero on the ***
 *** edges of the unit cell: wrong results in WAVELET solver           ***

   462 Broy./Diag. 0.10E+00    5.3     0.21446486      -150.3492813860  3.64E-02
   463 Broy./Diag. 0.10E+00    5.3     0.15958957      -150.3155729512  3.37E-02

 *** WARNING in pw/ps_wavelet_methods.F:238 :: Density non-zero on the ***
 *** edges of the unit cell: wrong results in WAVELET solver           ***

   464 Broy./Diag. 0.10E+00    5.3     0.14127742      -150.3038547095  1.17E-02

 *** WARNING in pw/ps_wavelet_methods.F:238 :: Density non-zero on the ***
 *** edges of the unit cell: wrong results in WAVELET solver           ***

   465 Broy./Diag. 0.10E+00    5.3     0.05461257      -150.3038250607  2.96E-05

 *** WARNING in pw/ps_wavelet_methods.F:238 :: Density non-zero on the ***
 *** edges of the unit cell: wrong results in WAVELET solver           ***

   466 Broy./Diag. 0.10E+00    5.3     0.08424391      -150.3051518139 -1.33E-03

 *** WARNING in pw/ps_wavelet_methods.F:238 :: Density non-zero on the ***
 *** edges of the unit cell: wrong results in WAVELET solver           ***

   467 Broy./Diag. 0.10E+00    5.3     0.08642627      -150.3539261263 -4.88E-02

 *** WARNING in pw/ps_wavelet_methods.F:238 :: Density non-zero on the ***
 *** edges of the unit cell: wrong results in WAVELET solver           ***

   468 Broy./Diag. 0.10E+00    5.3     0.10797335      -150.3379617048  1.60E-02

 *** WARNING in pw/ps_wavelet_methods.F:238 :: Density non-zero on the ***
 *** edges of the unit cell: wrong results in WAVELET solver           ***

   469 Broy./Diag. 0.10E+00    5.3     0.16444242      -150.3309289418  7.03E-03

 *** WARNING in pw/ps_wavelet_methods.F:238 :: Density non-zero on the ***
 *** edges of the unit cell: wrong results in WAVELET solver           ***

   470 Broy./Diag. 0.10E+00    5.3     0.20926975      -150.3271410837  3.79E-03

 *** WARNING in pw/ps_wavelet_methods.F:238 :: Density non-zero on the ***
 *** edges of the unit cell: wrong results in WAVELET solver           ***

   471 Broy./Diag. 0.10E+00    5.3     0.18248343      -150.3230784901  4.06E-03

 *** WARNING in pw/ps_wavelet_methods.F:238 :: Density non-zero on the ***
 *** edges of the unit cell: wrong results in WAVELET solver           ***

   472 Broy./Diag. 0.10E+00    5.3     0.09460618      -150.3193790250  3.70E-03

 *** WARNING in pw/ps_wavelet_methods.F:238 :: Density non-zero on the ***
 *** edges of the unit cell: wrong results in WAVELET solver           ***

   473 Broy./Diag. 0.10E+00    5.3     0.00765226      -150.3200733733 -6.94E-04
   474 Broy./Diag. 0.10E+00    5.3     0.05020136      -150.3360530032 -1.60E-02
   475 Broy./Diag. 0.10E+00    5.3     0.06988538      -150.3528611448 -1.68E-02

 *** WARNING in pw/ps_wavelet_methods.F:238 :: Density non-zero on the ***
 *** edges of the unit cell: wrong results in WAVELET solver           ***

   476 Broy./Diag. 0.10E+00    5.3     0.10373746      -150.3395553965  1.33E-02

 *** WARNING in pw/ps_wavelet_methods.F:238 :: Density non-zero on the ***
 *** edges of the unit cell: wrong results in WAVELET solver           ***

   477 Broy./Diag. 0.10E+00    5.3     0.14245083      -150.3054916787  3.41E-02

 *** WARNING in pw/ps_wavelet_methods.F:238 :: Density non-zero on the ***
 *** edges of the unit cell: wrong results in WAVELET solver           ***

   478 Broy./Diag. 0.10E+00    5.3     0.20160307      -150.2659210482  3.96E-02

 *** WARNING in pw/ps_wavelet_methods.F:238 :: Density non-zero on the ***
 *** edges of the unit cell: wrong results in WAVELET solver           ***

   479 Broy./Diag. 0.10E+00    5.3     0.17196221      -150.2495873923  1.63E-02

 *** WARNING in pw/ps_wavelet_methods.F:238 :: Density non-zero on the ***
 *** edges of the unit cell: wrong results in WAVELET solver           ***

   480 Broy./Diag. 0.10E+00    5.3     0.07246462      -150.2729807328 -2.34E-02

 *** WARNING in pw/ps_wavelet_methods.F:238 :: Density non-zero on the ***
 *** edges of the unit cell: wrong results in WAVELET solver           ***

   481 Broy./Diag. 0.10E+00    5.3     0.02522227      -150.3176733032 -4.47E-02

 *** WARNING in pw/ps_wavelet_methods.F:238 :: Density non-zero on the ***
 *** edges of the unit cell: wrong results in WAVELET solver           ***

   482 Broy./Diag. 0.10E+00    5.3     0.00594690      -150.3448009444 -2.71E-02

 *** WARNING in pw/ps_wavelet_methods.F:238 :: Density non-zero on the ***
 *** edges of the unit cell: wrong results in WAVELET solver           ***

   483 Broy./Diag. 0.10E+00    5.4     0.00178034      -150.3513932903 -6.59E-03

 *** WARNING in pw/ps_wavelet_methods.F:238 :: Density non-zero on the ***
 *** edges of the unit cell: wrong results in WAVELET solver           ***

   484 Broy./Diag. 0.10E+00    5.3     0.00493140      -150.3166127355  3.48E-02

 *** WARNING in pw/ps_wavelet_methods.F:238 :: Density non-zero on the ***
 *** edges of the unit cell: wrong results in WAVELET solver           ***

   485 Broy./Diag. 0.10E+00    5.3     0.03385545      -150.2555105123  6.11E-02
   486 Broy./Diag. 0.10E+00    5.3     0.02363764      -150.1959489942  5.96E-02
   487 Broy./Diag. 0.10E+00    5.3     0.04635672      -150.1700588117  2.59E-02
   488 Broy./Diag. 0.10E+00    5.3     0.02571968      -150.1743559753 -4.30E-03
   489 Broy./Diag. 0.10E+00    5.3     0.02756457      -150.1559664843  1.84E-02
   490 Broy./Diag. 0.10E+00    5.3     0.08526495      -150.1518998720  4.07E-03
   491 Broy./Diag. 0.10E+00    5.3     0.13625844      -150.1590417002 -7.14E-03
   492 Broy./Diag. 0.10E+00    5.3     0.19993929      -150.1523031039  6.74E-03
   493 Broy./Diag. 0.10E+00    5.3     0.22621307      -150.1428547252  9.45E-03
   494 Broy./Diag. 0.10E+00    5.3     0.20862201      -150.1297918823  1.31E-02
   495 Broy./Diag. 0.10E+00    5.3     0.14550164      -150.1211354184  8.66E-03
   496 Broy./Diag. 0.10E+00    5.3     0.14334938      -150.1047664356  1.64E-02
   497 Broy./Diag. 0.10E+00    5.3     0.11527838      -150.0962423999  8.52E-03
   498 Broy./Diag. 0.10E+00    5.3     0.10407102      -150.0905843676  5.66E-03
   499 Broy./Diag. 0.10E+00    5.3     0.08131048      -150.0792860124  1.13E-02
   500 Broy./Diag. 0.10E+00    5.3     0.06866715      -150.0633427219  1.59E-02

  Leaving inner SCF loop after reaching   500 steps.


  Electronic density on regular grids:        -12.3539979362        3.6460020638
  Core density on regular grids:               16.0000000000        0.0000000000
  Hard and soft densities (Lebedev):          -40.0446255165      -36.3950159780
  Total Rho_soft + Rho1_hard - Rho1_soft      -16.0036074748
  Total charge density (r-space):              -0.0036074748
  Total Rho_soft + Rho0_soft (g-space):        -0.0036075936

  Overlap energy of the core charge distribution:               0.00000000200246
  Self energy of the core charge distribution:               -145.82024045573709
  Core Hamiltonian energy:                                    -13.19174112111637
  Hartree energy:                                              26.41515692136777
  Exchange-correlation energy:                                 -5.53526424515652
  Hartree-Fock Exchange energy:                                -4.06900499917332

  GAPW| Exc from hard and soft atomic rho1:                    -7.27536267115197
  GAPW| local Eh = 1 center integrals:                         -0.58688615293058

  Total energy:                                              -150.06334272189565

 *******************************************************************************
 *   ___                                                                       *
 *  /   \                                                                      *
 * [ABORT]                                                                     *
 *  \___/     SCF run NOT converged. To continue the calculation regardless,   *
 *    |             please set the keyword IGNORE_CONVERGENCE_FAILURE.         *
 *  O/|                                                                        *
 * /| |                                                                        *
 * / \                                                            qs_scf.F:611 *
 *******************************************************************************


 ===== Routine Calling Stack ===== 

            3 scf_env_do_scf
            2 qs_energies
            1 CP2K

 *******************************************************************************
 *   ___                                                                       *
 *  /   \                                                                      *
 * [ABORT]                                                                     *
 *  \___/     SCF run NOT converged. To continue the calculation regardless,   *
 *    |             please set the keyword IGNORE_CONVERGENCE_FAILURE.         *
 *  O/|                                                                        *
 * /| |                                                                        *
 * / \                                                            qs_scf.F:611 *
 *******************************************************************************


 ===== Routine Calling Stack ===== 

            3 scf_env_do_scf
            2 qs_energies
            1 CP2K

 *******************************************************************************
 *   ___                                                                       *
 *  /   \                                                                      *
 * [ABORT]                                                                     *
 *  \___/     SCF run NOT converged. To continue the calculation regardless,   *
 *    |             please set the keyword IGNORE_CONVERGENCE_FAILURE.         *
 *  O/|                                                                        *
 * /| |                                                                        *
 * / \                                                            qs_scf.F:611 *
 *******************************************************************************


 ===== Routine Calling Stack ===== 

            3 scf_env_do_scf
            2 qs_energies
            1 CP2K

 *******************************************************************************
 *   ___                                                                       *
 *  /   \                                                                      *
 * [ABORT]                                                                     *
 *  \___/     SCF run NOT converged. To continue the calculation regardless,   *
 *    |             please set the keyword IGNORE_CONVERGENCE_FAILURE.         *
 *  O/|                                                                        *
 * /| |                                                                        *
 * / \                                                            qs_scf.F:611 *
 *******************************************************************************


 ===== Routine Calling Stack ===== 

            3 scf_env_do_scf
            2 qs_energies
            1 CP2K

 *******************************************************************************
 *   ___                                                                       *
 *  /   \                                                                      *
 * [ABORT]                                                                     *
 *  \___/     SCF run NOT converged. To continue the calculation regardless,   *
 *    |             please set the keyword IGNORE_CONVERGENCE_FAILURE.         *
 *  O/|                                                                        *
 * /| |                                                                        *
 * / \                                                            qs_scf.F:611 *
 *******************************************************************************


 ===== Routine Calling Stack ===== 

            3 scf_env_do_scf
            2 qs_energies
            1 CP2K

 *******************************************************************************
 *   ___                                                                       *
 *  /   \                                                                      *
 * [ABORT]                                                                     *
 *  \___/     SCF run NOT converged. To continue the calculation regardless,   *
 *    |             please set the keyword IGNORE_CONVERGENCE_FAILURE.         *
 *  O/|                                                                        *
 * /| |                                                                        *
 * / \                                                            qs_scf.F:611 *
 *******************************************************************************


 ===== Routine Calling Stack ===== 

            3 scf_env_do_scf
            2 qs_energies
            1 CP2K

 *******************************************************************************
 *   ___                                                                       *
 *  /   \                                                                      *
 * [ABORT]                                                                     *
 *  \___/     SCF run NOT converged. To continue the calculation regardless,   *
 *    |             please set the keyword IGNORE_CONVERGENCE_FAILURE.         *
 *  O/|                                                                        *
 * /| |                                                                        *
 * / \                                                            qs_scf.F:611 *
 *******************************************************************************


 ===== Routine Calling Stack ===== 

            3 scf_env_do_scf
            2 qs_energies
            1 CP2K

 *******************************************************************************
 *   ___                                                                       *
 *  /   \                                                                      *
 * [ABORT]                                                                     *
 *  \___/     SCF run NOT converged. To continue the calculation regardless,   *
 *    |             please set the keyword IGNORE_CONVERGENCE_FAILURE.         *
 *  O/|                                                                        *
 * /| |                                                                        *
 * / \                                                            qs_scf.F:611 *
 *******************************************************************************


 ===== Routine Calling Stack ===== 

            3 scf_env_do_scf
            2 qs_energies
            1 CP2K

 *******************************************************************************
 *   ___                                                                       *
 *  /   \                                                                      *
 * [ABORT]                                                                     *
 *  \___/     SCF run NOT converged. To continue the calculation regardless,   *
 *    |             please set the keyword IGNORE_CONVERGENCE_FAILURE.         *
 *  O/|                                                                        *
 * /| |                                                                        *
 * / \                                                            qs_scf.F:611 *
 *******************************************************************************


 ===== Routine Calling Stack ===== 

            3 scf_env_do_scf
            2 qs_energies
            1 CP2K

 *******************************************************************************
 *   ___                                                                       *
 *  /   \                                                                      *
 * [ABORT]                                                                     *
 *  \___/     SCF run NOT converged. To continue the calculation regardless,   *
 *    |             please set the keyword IGNORE_CONVERGENCE_FAILURE.         *
 *  O/|                                                                        *
 * /| |                                                                        *
 * / \                                                            qs_scf.F:611 *
 *******************************************************************************


 ===== Routine Calling Stack ===== 

            3 scf_env_do_scf
            2 qs_energies
            1 CP2K

 *******************************************************************************
 *   ___                                                                       *
 *  /   \                                                                      *
 * [ABORT]                                                                     *
 *  \___/     SCF run NOT converged. To continue the calculation regardless,   *
 *    |             please set the keyword IGNORE_CONVERGENCE_FAILURE.         *
 *  O/|                                                                        *
 * /| |                                                                        *
 * / \                                                            qs_scf.F:611 *
 *******************************************************************************


 ===== Routine Calling Stack ===== 

            3 scf_env_do_scf
            2 qs_energies
            1 CP2K

 *******************************************************************************
 *   ___                                                                       *
 *  /   \                                                                      *
 * [ABORT]                                                                     *
 *  \___/     SCF run NOT converged. To continue the calculation regardless,   *
 *    |             please set the keyword IGNORE_CONVERGENCE_FAILURE.         *
 *  O/|                                                                        *
 * /| |                                                                        *
 * / \                                                            qs_scf.F:611 *
 *******************************************************************************


 ===== Routine Calling Stack ===== 

            3 scf_env_do_scf
            2 qs_energies
            1 CP2K

 *******************************************************************************
 *   ___                                                                       *
 *  /   \                                                                      *
 * [ABORT]                                                                     *
 *  \___/     SCF run NOT converged. To continue the calculation regardless,   *
 *    |             please set the keyword IGNORE_CONVERGENCE_FAILURE.         *
 *  O/|                                                                        *
 * /| |                                                                        *
 * / \                                                            qs_scf.F:611 *
 *******************************************************************************


 ===== Routine Calling Stack ===== 

            3 scf_env_do_scf
            2 qs_energies
            1 CP2K
