 DBCSR| CPU Multiplication driver                                           BLAS (U)
 DBCSR| Multrec recursion limit                                              512 (U)
 DBCSR| Multiplication stack size                                           1000 (D)
 DBCSR| Maximum elements for images                                    UNLIMITED (U)
 DBCSR| Multiplicative factor virtual images                                   1 (U)
 DBCSR| Use multiplication densification                                       T (D)
 DBCSR| Multiplication size stacks                                             3 (U)
 DBCSR| Use memory pool for CPU allocation                                     F (U)
 DBCSR| Number of 3D layers                                               SINGLE (U)
 DBCSR| Use MPI memory allocation                                              F (U)
 DBCSR| Use RMA algorithm                                                      F (U)
 DBCSR| Use Communication thread                                               T (U)
 DBCSR| Communication thread load                                             75 (D)
 DBCSR| MPI: My process id                                                     0
 DBCSR| MPI: Number of processes                                              48
 DBCSR| OMP: Current number of threads                                         4
 DBCSR| OMP: Max number of threads                                             4
 DBCSR| Split modifier for TAS multiplication algorithm                  1.0E+00 (U)


  **** **** ******  **  PROGRAM STARTED AT               2025-03-26 06:46:18.323
 ***** ** ***  *** **   PROGRAM STARTED ON                          i05r09c01s04
 **    ****   ******    PROGRAM STARTED BY                               di38fab
 ***** **    ** ** **   PROGRAM PROCESS ID                               3894078
  **** **  *******  **  PROGRAM STARTED IN /hppfs/scratch/04/di38fab/05_MOL/W4-1
                                           1+ALK/o2/DZVP/GW+BSE/1e-4

 CP2K| version string:                 CP2K version 2025.1 (Development Version)
 CP2K| source code revision number:                                  git:d2e611a
 CP2K| cp2kflags: omp libint fftw3 libxc parallel scalapack max_contr=4         
 CP2K| is freely available from                            https://www.cp2k.org/
 CP2K| Program compiled at                       Thu 06 Mar 2025 05:09:20 PM CET
 CP2K| Program compiled on                                               login02
 CP2K| Program compiled for                                        Supermuc-foss
 CP2K| Data directory path                  /hppfs/work/pn36zo/di38fab/cp2k/data
 CP2K| Input file name                                                    GW.inp

 GLOBAL| Force Environment number                                              1
 GLOBAL| Basis set file name            /hppfs/scratch/04/di38fab/04_TMD/BASIS_A
 GLOBAL| Potential file name            /hppfs/work/pn36zo/di38fab/cp2k/data/ALL
 GLOBAL| MM Potential file name                                     MM_POTENTIAL
 GLOBAL| Coordinate file name                                      __STD_INPUT__
 GLOBAL| Method name                                                        CP2K
 GLOBAL| Project name                                                       MoS2
 GLOBAL| Run type                                                         ENERGY
 GLOBAL| FFT library                                                       FFTW3
 GLOBAL| Diagonalization library                                       ScaLAPACK
 GLOBAL| DGEMM library                                                      BLAS
 GLOBAL| Orthonormality check for eigenvectors                          DISABLED
 GLOBAL| Matrix multiplication library                                 ScaLAPACK
 GLOBAL| All-to-all communication in single precision                          F
 GLOBAL| FFTs using library dependent lengths                                  F
 GLOBAL| Grid backend                                                       AUTO
 GLOBAL| Global print level                                               MEDIUM
 GLOBAL| MPI I/O enabled                                                       T
 GLOBAL| Total number of message passing processes                            48
 GLOBAL| Number of threads for this process                                    4
 GLOBAL| This output is from process                                           0
 GLOBAL| OpenMP stack size per thread (OMP_STACKSIZE)                    default
 GLOBAL| CPU model name             Intel(R) Xeon(R) Platinum 8174 CPU @ 3.10GHz

 MEMORY| system memory details [Kb]
 MEMORY|                        rank 0           min           max       average
 MEMORY| MemTotal             98436708      98436660      98436708      98436674
 MEMORY| MemFree              85180284      83890184      85180284      84250044
 MEMORY| Buffers                     0             0             0             0
 MEMORY| Cached                2359796       2359796       2409764       2395352
 MEMORY| Slab                  1021936       1021936       1264696       1194713
 MEMORY| SReclaimable           236712        236712        283688        270107
 MEMORY| MemLikelyFree        87776792      86583432      87776792      86915503


 *** Fundamental physical constants (SI units) ***

 *** Literature: B. J. Mohr and B. N. Taylor,
 ***             CODATA recommended values of the fundamental physical
 ***             constants: 2006, Web Version 5.1
 ***             http://physics.nist.gov/constants

 Speed of light in vacuum [m/s]                             2.99792458000000E+08
 Magnetic constant or permeability of vacuum [N/A**2]       1.25663706143592E-06
 Electric constant or permittivity of vacuum [F/m]          8.85418781762039E-12
 Planck constant (h) [J*s]                                  6.62606896000000E-34
 Planck constant (h-bar) [J*s]                              1.05457162825177E-34
 Elementary charge [C]                                      1.60217648700000E-19
 Electron mass [kg]                                         9.10938215000000E-31
 Electron g factor [ ]                                     -2.00231930436220E+00
 Proton mass [kg]                                           1.67262163700000E-27
 Fine-structure constant                                    7.29735253760000E-03
 Rydberg constant [1/m]                                     1.09737315685270E+07
 Avogadro constant [1/mol]                                  6.02214179000000E+23
 Boltzmann constant [J/K]                                   1.38065040000000E-23
 Atomic mass unit [kg]                                      1.66053878200000E-27
 Bohr radius [m]                                            5.29177208590000E-11

 *** Conversion factors ***

 [u] -> [a.u.]                                              1.82288848426455E+03
 [Angstrom] -> [Bohr] = [a.u.]                              1.88972613288564E+00
 [a.u.] = [Bohr] -> [Angstrom]                              5.29177208590000E-01
 [a.u.] -> [s]                                              2.41888432650478E-17
 [a.u.] -> [fs]                                             2.41888432650478E-02
 [a.u.] -> [J]                                              4.35974393937059E-18
 [a.u.] -> [N]                                              8.23872205491840E-08
 [a.u.] -> [K]                                              3.15774647902944E+05
 [a.u.] -> [kJ/mol]                                         2.62549961709828E+03
 [a.u.] -> [kcal/mol]                                       6.27509468713739E+02
 [a.u.] -> [Pa]                                             2.94210107994716E+13
 [a.u.] -> [bar]                                            2.94210107994716E+08
 [a.u.] -> [atm]                                            2.90362800883016E+08
 [a.u.] -> [eV]                                             2.72113838565563E+01
 [a.u.] -> [Hz]                                             6.57968392072181E+15
 [a.u.] -> [1/cm] (wave numbers)                            2.19474631370540E+05
 [a.u./Bohr**2] -> [1/cm]                                   5.14048714338585E+03
 

 CELL_TOP| Volume [angstrom^3]:                                     27000.000000
 CELL_TOP| Vector a [angstrom    30.000     0.000     0.000   |a| =    30.000000
 CELL_TOP| Vector b [angstrom     0.000    30.000     0.000   |b| =    30.000000
 CELL_TOP| Vector c [angstrom     0.000     0.000    30.000   |c| =    30.000000
 CELL_TOP| Angle (b,c), alpha [degree]:                                90.000000
 CELL_TOP| Angle (a,c), beta  [degree]:                                90.000000
 CELL_TOP| Angle (a,b), gamma [degree]:                                90.000000
 CELL_TOP| Numerically orthorhombic:                                         YES
 CELL_TOP| Periodicity                                                      NONE

 GENERATE|  Preliminary Number of Bonds generated:                             0
 GENERATE|  Achieved consistency in connectivity generation.

 CELL| Volume [angstrom^3]:                                         27000.000000
 CELL| Vector a [angstrom]:      30.000     0.000     0.000   |a| =    30.000000
 CELL| Vector b [angstrom]:       0.000    30.000     0.000   |b| =    30.000000
 CELL| Vector c [angstrom]:       0.000     0.000    30.000   |c| =    30.000000
 CELL| Angle (b,c), alpha [degree]:                                    90.000000
 CELL| Angle (a,c), beta  [degree]:                                    90.000000
 CELL| Angle (a,b), gamma [degree]:                                    90.000000
 CELL| Numerically orthorhombic:                                             YES
 CELL| Periodicity                                                          NONE

 CELL_REF| Volume [angstrom^3]:                                     27000.000000
 CELL_REF| Vector a [angstrom    30.000     0.000     0.000   |a| =    30.000000
 CELL_REF| Vector b [angstrom     0.000    30.000     0.000   |b| =    30.000000
 CELL_REF| Vector c [angstrom     0.000     0.000    30.000   |c| =    30.000000
 CELL_REF| Angle (b,c), alpha [degree]:                                90.000000
 CELL_REF| Angle (a,c), beta  [degree]:                                90.000000
 CELL_REF| Angle (a,b), gamma [degree]:                                90.000000
 CELL_REF| Numerically orthorhombic:                                         YES
 CELL_REF| Periodicity                                                      NONE

 *******************************************************************************
 *******************************************************************************
 **                                                                           **
 **     #####                         ##              ##                      **
 **    ##   ##            ##          ##              ##                      **
 **   ##     ##                       ##            ######                    **
 **   ##     ##  ##   ##  ##   #####  ##  ##   ####   ##    #####    #####    **
 **   ##     ##  ##   ##  ##  ##      ## ##   ##      ##   ##   ##  ##   ##   **
 **   ##  ## ##  ##   ##  ##  ##      ####     ###    ##   ######   ######    **
 **    ##  ###   ##   ##  ##  ##      ## ##      ##   ##   ##       ##        **
 **     #######   #####   ##   #####  ##  ##  ####    ##    #####   ##        **
 **           ##                                                    ##        **
 **                                                                           **
 **                                                ... make the atoms dance   **
 **                                                                           **
 **            Copyright (C) by CP2K developers group (2000-2025)             **
 **                      J. Chem. Phys. 152, 194103 (2020)                    **
 **                                                                           **
 *******************************************************************************

 DFT| Spin restricted Kohn-Sham (RKS) calculation                            RKS
 DFT| Multiplicity                                                             1
 DFT| Number of spin states                                                    1
 DFT| Charge                                                                   0
 DFT| Self-interaction correction (SIC)                                       NO
 DFT| Cutoffs: density                                              1.000000E-10
 DFT|          gradient                                             1.000000E-10
 DFT|          tau                                                  1.000000E-10
 DFT|          cutoff_smoothing_range                               0.000000E+00
 DFT| XC density smoothing                                                  NONE
 DFT| XC derivatives                                                          PW

 FUNCTIONAL| PBE:
 FUNCTIONAL| J.P.Perdew, K.Burke, M.Ernzerhof, Phys. Rev. Letter, vol. 77, n 18,
 FUNCTIONAL|  pp. 3865-3868, (1996)sx=0.750sc=1.000{spin unpolarized}           


 QS| Method:                                                                GAPW
 QS| Density plane wave grid type                        NON-SPHERICAL FULLSPACE
 QS| Number of grid levels:                                                    4
 QS| Density cutoff [a.u.]:                                                250.0
 QS| Multi grid cutoff [a.u.]: 1) grid level                               250.0
 QS|                           2) grid level                                83.3
 QS|                           3) grid level                                27.8
 QS|                           4) grid level                                 9.3
 QS| Grid level progression factor:                                          3.0
 QS| Relative density cutoff [a.u.]:                                        50.0
 QS| Interaction thresholds: eps_pgf_orb:                                1.0E-12
 QS|                         eps_filter_matrix:                          0.0E+00
 QS|                         eps_core_charge:                            1.0E-14
 QS|                         eps_rho_gspace:                             1.0E-12
 QS|                         eps_rho_rspace:                             1.0E-12
 QS|                         eps_gvg_rspace:                             1.0E-06
 QS|                         eps_ppl:                                    1.0E-02
 QS|                         eps_ppnl:                                   1.0E-08
 QS| GAPW|      One center basis from orbital basis primitives
 QS| GAPW|                   eps_fit:                                    1.0E-04
 QS| GAPW|                   eps_iso:                                    1.0E-12
 QS| GAPW|                   eps_svd:                                    1.0E-08
 QS| GAPW|                   eps_cpc:                                    1.0E-12
 QS| GAPW|   atom-r-grid: quadrature:                                     GC_LOG
 QS| GAPW|      atom-s-grid:  max l :                                          6
 QS| GAPW|      max_l_rho0 :                                                   2


 ATOMIC KIND INFORMATION

  1. Atomic kind: O                                     Number of atoms:       2

     Orbital Basis Set                                        aug-DZVP-MOLOPT-ae

       Number of orbital shell sets:                                           2
       Number of orbital shells:                                              10
       Number of primitive Cartesian functions:                               12
       Number of Cartesian basis functions:                                   35
       Number of spherical basis functions:                                   30
       Norm type:                                                              2

       Normalised Cartesian orbitals:

                        Set   Shell   Orbital            Exponent    Coefficient

                          1       1    2s                0.090000       0.120905
                                                         0.191936      -0.019521
                                                         0.750068       0.059582
                                                         2.907977       0.000000
                                                        16.368686       0.000000

                          1       2    3px               0.090000       0.000000
                                                         0.191936       0.023686
                                                         0.750068       0.626550
                                                         2.907977       2.082711
                                                        16.368686       3.596544
                          1       2    3py               0.090000       0.000000
                                                         0.191936       0.023686
                                                         0.750068       0.626550
                                                         2.907977       2.082711
                                                        16.368686       3.596544
                          1       2    3pz               0.090000       0.000000
                                                         0.191936       0.023686
                                                         0.750068       0.626550
                                                         2.907977       2.082711
                                                        16.368686       3.596544

                          1       3    4px               0.090000       0.000000
                                                         0.191936       0.196557
                                                         0.750068      -0.157257
                                                         2.907977      -0.566756
                                                        16.368686      -1.323495
                          1       3    4py               0.090000       0.000000
                                                         0.191936       0.196557
                                                         0.750068      -0.157257
                                                         2.907977      -0.566756
                                                        16.368686      -1.323495
                          1       3    4pz               0.090000       0.000000
                                                         0.191936       0.196557
                                                         0.750068      -0.157257
                                                         2.907977      -0.566756
                                                        16.368686      -1.323495

                          1       4    5px               0.090000       0.020606
                                                         0.191936       0.124186
                                                         0.750068       0.098287
                                                         2.907977       0.000000
                                                        16.368686       0.000000
                          1       4    5py               0.090000       0.020606
                                                         0.191936       0.124186
                                                         0.750068       0.098287
                                                         2.907977       0.000000
                                                        16.368686       0.000000
                          1       4    5pz               0.090000       0.020606
                                                         0.191936       0.124186
                                                         0.750068       0.098287
                                                         2.907977       0.000000
                                                        16.368686       0.000000

                          1       5    4dx2              0.090000       0.000000
                                                         0.191936       0.030414
                                                         0.750068       0.724129
                                                         2.907977       1.586204
                                                        16.368686       1.487256
                          1       5    4dxy              0.090000       0.000000
                                                         0.191936       0.052678
                                                         0.750068       1.254227
                                                         2.907977       2.747386
                                                        16.368686       2.576002
                          1       5    4dxz              0.090000       0.000000
                                                         0.191936       0.052678
                                                         0.750068       1.254227
                                                         2.907977       2.747386
                                                        16.368686       2.576002
                          1       5    4dy2              0.090000       0.000000
                                                         0.191936       0.030414
                                                         0.750068       0.724129
                                                         2.907977       1.586204
                                                        16.368686       1.487256
                          1       5    4dyz              0.090000       0.000000
                                                         0.191936       0.052678
                                                         0.750068       1.254227
                                                         2.907977       2.747386
                                                        16.368686       2.576002
                          1       5    4dz2              0.090000       0.000000
                                                         0.191936       0.030414
                                                         0.750068       0.724129
                                                         2.907977       1.586204
                                                        16.368686       1.487256

                          1       6    5dx2              0.090000      -0.010181
                                                         0.191936       0.018957
                                                         0.750068       0.933882
                                                         2.907977       0.008471
                                                        16.368686       0.000000
                          1       6    5dxy              0.090000      -0.017634
                                                         0.191936       0.032834
                                                         0.750068       1.617531
                                                         2.907977       0.014671
                                                        16.368686       0.000000
                          1       6    5dxz              0.090000      -0.017634
                                                         0.191936       0.032834
                                                         0.750068       1.617531
                                                         2.907977       0.014671
                                                        16.368686       0.000000
                          1       6    5dy2              0.090000      -0.010181
                                                         0.191936       0.018957
                                                         0.750068       0.933882
                                                         2.907977       0.008471
                                                        16.368686       0.000000
                          1       6    5dyz              0.090000      -0.017634
                                                         0.191936       0.032834
                                                         0.750068       1.617531
                                                         2.907977       0.014671
                                                        16.368686       0.000000
                          1       6    5dz2              0.090000      -0.010181
                                                         0.191936       0.018957
                                                         0.750068       0.933882
                                                         2.907977       0.008471
                                                        16.368686       0.000000

                          1       7    5fx3              0.090000       0.003073
                                                         0.191936       0.017866
                                                         0.750068       0.208981
                                                         2.907977      -1.809714
                                                        16.368686       0.000000
                          1       7    5fx2y             0.090000       0.006871
                                                         0.191936       0.039950
                                                         0.750068       0.467295
                                                         2.907977      -4.046643
                                                        16.368686       0.000000
                          1       7    5fx2z             0.090000       0.006871
                                                         0.191936       0.039950
                                                         0.750068       0.467295
                                                         2.907977      -4.046643
                                                        16.368686       0.000000
                          1       7    5fxy2             0.090000       0.006871
                                                         0.191936       0.039950
                                                         0.750068       0.467295
                                                         2.907977      -4.046643
                                                        16.368686       0.000000
                          1       7    5fxyz             0.090000       0.011901
                                                         0.191936       0.069196
                                                         0.750068       0.809378
                                                         2.907977      -7.008992
                                                        16.368686       0.000000
                          1       7    5fxz2             0.090000       0.006871
                                                         0.191936       0.039950
                                                         0.750068       0.467295
                                                         2.907977      -4.046643
                                                        16.368686       0.000000
                          1       7    5fy3              0.090000       0.003073
                                                         0.191936       0.017866
                                                         0.750068       0.208981
                                                         2.907977      -1.809714
                                                        16.368686       0.000000
                          1       7    5fy2z             0.090000       0.006871
                                                         0.191936       0.039950
                                                         0.750068       0.467295
                                                         2.907977      -4.046643
                                                        16.368686       0.000000
                          1       7    5fyz2             0.090000       0.006871
                                                         0.191936       0.039950
                                                         0.750068       0.467295
                                                         2.907977      -4.046643
                                                        16.368686       0.000000
                          1       7    5fz3              0.090000       0.003073
                                                         0.191936       0.017866
                                                         0.750068       0.208981
                                                         2.907977      -1.809714
                                                        16.368686       0.000000

                          2       1    1s                0.293338      -0.001581
                                                         0.941883       0.076823
                                                         5.946538      -1.128731
                                                        19.692604      -3.542509
                                                        76.928143      -3.538410
                                                       340.903325      -2.616043
                                                      2266.118827      -1.088852

                          2       2    2s                0.293338       0.124568
                                                         0.941883       0.386056
                                                         5.946538       0.132815
                                                        19.692604       0.350657
                                                        76.928143       1.294240
                                                       340.903325      -0.343055
                                                      2266.118827       0.730749

                          2       3    3s                0.293338       0.411906
                                                         0.941883      -0.735854
                                                         5.946538      -0.324434
                                                        19.692604      -0.580898
                                                        76.928143      -3.484318
                                                       340.903325       2.878168
                                                      2266.118827      -6.417666

     RI Auxiliary Basis Set             RI_aug-DZVP-MOLOPT-ae_N_RI_072_s_p_d_f_g

       Number of orbital shell sets:                                          20
       Number of orbital shells:                                              20
       Number of primitive Cartesian functions:                               20
       Number of Cartesian basis functions:                                   91
       Number of spherical basis functions:                                   72
       Norm type:                                                              2

       Normalised Cartesian orbitals:

                        Set   Shell   Orbital            Exponent    Coefficient

                          1       1    1s                0.149663       0.171493

                          2       1   13dx2              0.154035       0.062337
                          2       1   13dxy              0.154035       0.107971
                          2       1   13dxz              0.154035       0.107971
                          2       1   13dy2              0.154035       0.062337
                          2       1   13dyz              0.154035       0.107971
                          2       1   13dz2              0.154035       0.062337

                          3       1    8px               0.183646       0.171363
                          3       1    8py               0.183646       0.171363
                          3       1    8pz               0.183646       0.171363

                          4       1   17fx3              0.375009       0.162012
                          4       1   17fx2y             0.375009       0.362270
                          4       1   17fx2z             0.375009       0.362270
                          4       1   17fxy2             0.375009       0.362270
                          4       1   17fxyz             0.375009       0.627470
                          4       1   17fxz2             0.375009       0.362270
                          4       1   17fy3              0.375009       0.162012
                          4       1   17fy2z             0.375009       0.362270
                          4       1   17fyz2             0.375009       0.362270
                          4       1   17fz3              0.375009       0.162012

                          5       1    2s                0.391216       0.352551

                          6       1   14dx2              0.576365       0.627525
                          6       1   14dxy              0.576365       1.086905
                          6       1   14dxz              0.576365       1.086905
                          6       1   14dy2              0.576365       0.627525
                          6       1   14dyz              0.576365       1.086905
                          6       1   14dz2              0.576365       0.627525

                          7       1    9px               0.681723       0.882978
                          7       1    9py               0.681723       0.882978
                          7       1    9pz               0.681723       0.882978

                          8       1   20gx4              0.710982       0.435559
                          8       1   20gx3y             0.710982       1.152381
                          8       1   20gx3z             0.710982       1.152381
                          8       1   20gx2y2            0.710982       1.487718
                          8       1   20gx2yz            0.710982       2.576803
                          8       1   20gx2z2            0.710982       1.487718
                          8       1   20gxy3             0.710982       1.152381
                          8       1   20gxy2z            0.710982       2.576803
                          8       1   20gxyz2            0.710982       2.576803
                          8       1   20gxz3             0.710982       1.152381
                          8       1   20gy4              0.710982       0.435559
                          8       1   20gy3z             0.710982       1.152381
                          8       1   20gy2z2            0.710982       1.487718
                          8       1   20gyz3             0.710982       1.152381
                          8       1   20gz4              0.710982       0.435559

                          9       1   10px               1.077483       1.564779
                          9       1   10py               1.077483       1.564779
                          9       1   10pz               1.077483       1.564779

                         10       1    3s                1.173203       0.803415

                         11       1   15dx2              1.274843       2.517437
                         11       1   15dxy              1.274843       4.360328
                         11       1   15dxz              1.274843       4.360328
                         11       1   15dy2              1.274843       2.517437
                         11       1   15dyz              1.274843       4.360328
                         11       1   15dz2              1.274843       2.517437

                         12       1   18fx3              1.337264       2.831020
                         12       1   18fx2y             1.337264       6.330353
                         12       1   18fx2z             1.337264       6.330353
                         12       1   18fxy2             1.337264       6.330353
                         12       1   18fxyz             1.337264      10.964493
                         12       1   18fxz2             1.337264       6.330353
                         12       1   18fy3              1.337264       2.831020
                         12       1   18fy2z             1.337264       6.330353
                         12       1   18fyz2             1.337264       6.330353
                         12       1   18fz3              1.337264       2.831020

                         13       1    4s                3.143421       1.682527

                         14       1   11px               3.601750       7.072649
                         14       1   11py               3.601750       7.072649
                         14       1   11pz               3.601750       7.072649

                         15       1   16dx2              4.763207      25.277465
                         15       1   16dxy              4.763207      43.781854
                         15       1   16dxz              4.763207      43.781854
                         15       1   16dy2              4.763207      25.277465
                         15       1   16dyz              4.763207      43.781854
                         15       1   16dz2              4.763207      25.277465

                         16       1   19fx3              5.064165      56.636583
                         16       1   19fx2y             5.064165     126.643249
                         16       1   19fx2z             5.064165     126.643249
                         16       1   19fxy2             5.064165     126.643249
                         16       1   19fxyz             5.064165     219.352541
                         16       1   19fxz2             5.064165     126.643249
                         16       1   19fy3              5.064165      56.636583
                         16       1   19fy2z             5.064165     126.643249
                         16       1   19fyz2             5.064165     126.643249
                         16       1   19fz3              5.064165      56.636583

                         17       1    5s               12.516691       4.742717

                         18       1   12px              19.115095      56.971896
                         18       1   12py              19.115095      56.971896
                         18       1   12pz              19.115095      56.971896

                         19       1    6s               46.942700      12.781627

                         20       1    7s              160.163322      32.087242

       Atomic covalent radius [Angstrom]:                                  0.730

       Atomic van der Waals radius [Angstrom]:                             1.520

     The atoms of this atomic kind are PAW atoms (GAPW):
       Hard Gaussian function radius:                                      1.512
       Rho0 radius:                                                        1.512
       Maximum GTO radius used for PAW projector construction:            24.566

     GAPW Soft Basis Set                                 aug-DZVP-MOLOPT-ae_soft

       Number of orbital shell sets:                                           2
       Number of orbital shells:                                              10
       Number of primitive Cartesian functions:                                6
       Number of Cartesian basis functions:                                   35
       Number of spherical basis functions:                                   30
       Norm type:                                                              2

       Normalised Cartesian orbitals:

                        Set   Shell   Orbital            Exponent    Coefficient

                          1       1    2s                0.090000       0.120905
                                                         0.191936      -0.019521
                                                         0.750068       0.059582
                                                         2.907977       0.000000

                          1       2    3px               0.090000       0.000000
                                                         0.191936       0.023686
                                                         0.750068       0.626550
                                                         2.907977       2.082711
                          1       2    3py               0.090000       0.000000
                                                         0.191936       0.023686
                                                         0.750068       0.626550
                                                         2.907977       2.082711
                          1       2    3pz               0.090000       0.000000
                                                         0.191936       0.023686
                                                         0.750068       0.626550
                                                         2.907977       2.082711

                          1       3    4px               0.090000       0.000000
                                                         0.191936       0.196557
                                                         0.750068      -0.157257
                                                         2.907977      -0.566756
                          1       3    4py               0.090000       0.000000
                                                         0.191936       0.196557
                                                         0.750068      -0.157257
                                                         2.907977      -0.566756
                          1       3    4pz               0.090000       0.000000
                                                         0.191936       0.196557
                                                         0.750068      -0.157257
                                                         2.907977      -0.566756

                          1       4    5px               0.090000       0.020606
                                                         0.191936       0.124186
                                                         0.750068       0.098287
                                                         2.907977       0.000000
                          1       4    5py               0.090000       0.020606
                                                         0.191936       0.124186
                                                         0.750068       0.098287
                                                         2.907977       0.000000
                          1       4    5pz               0.090000       0.020606
                                                         0.191936       0.124186
                                                         0.750068       0.098287
                                                         2.907977       0.000000

                          1       5    4dx2              0.090000       0.000000
                                                         0.191936       0.030414
                                                         0.750068       0.724129
                                                         2.907977       1.586204
                          1       5    4dxy              0.090000       0.000000
                                                         0.191936       0.052678
                                                         0.750068       1.254227
                                                         2.907977       2.747386
                          1       5    4dxz              0.090000       0.000000
                                                         0.191936       0.052678
                                                         0.750068       1.254227
                                                         2.907977       2.747386
                          1       5    4dy2              0.090000       0.000000
                                                         0.191936       0.030414
                                                         0.750068       0.724129
                                                         2.907977       1.586204
                          1       5    4dyz              0.090000       0.000000
                                                         0.191936       0.052678
                                                         0.750068       1.254227
                                                         2.907977       2.747386
                          1       5    4dz2              0.090000       0.000000
                                                         0.191936       0.030414
                                                         0.750068       0.724129
                                                         2.907977       1.586204

                          1       6    5dx2              0.090000      -0.010181
                                                         0.191936       0.018957
                                                         0.750068       0.933882
                                                         2.907977       0.008471
                          1       6    5dxy              0.090000      -0.017634
                                                         0.191936       0.032834
                                                         0.750068       1.617531
                                                         2.907977       0.014671
                          1       6    5dxz              0.090000      -0.017634
                                                         0.191936       0.032834
                                                         0.750068       1.617531
                                                         2.907977       0.014671
                          1       6    5dy2              0.090000      -0.010181
                                                         0.191936       0.018957
                                                         0.750068       0.933882
                                                         2.907977       0.008471
                          1       6    5dyz              0.090000      -0.017634
                                                         0.191936       0.032834
                                                         0.750068       1.617531
                                                         2.907977       0.014671
                          1       6    5dz2              0.090000      -0.010181
                                                         0.191936       0.018957
                                                         0.750068       0.933882
                                                         2.907977       0.008471

                          1       7    5fx3              0.090000       0.003073
                                                         0.191936       0.017866
                                                         0.750068       0.208981
                                                         2.907977      -1.809714
                          1       7    5fx2y             0.090000       0.006871
                                                         0.191936       0.039950
                                                         0.750068       0.467295
                                                         2.907977      -4.046643
                          1       7    5fx2z             0.090000       0.006871
                                                         0.191936       0.039950
                                                         0.750068       0.467295
                                                         2.907977      -4.046643
                          1       7    5fxy2             0.090000       0.006871
                                                         0.191936       0.039950
                                                         0.750068       0.467295
                                                         2.907977      -4.046643
                          1       7    5fxyz             0.090000       0.011901
                                                         0.191936       0.069196
                                                         0.750068       0.809378
                                                         2.907977      -7.008992
                          1       7    5fxz2             0.090000       0.006871
                                                         0.191936       0.039950
                                                         0.750068       0.467295
                                                         2.907977      -4.046643
                          1       7    5fy3              0.090000       0.003073
                                                         0.191936       0.017866
                                                         0.750068       0.208981
                                                         2.907977      -1.809714
                          1       7    5fy2z             0.090000       0.006871
                                                         0.191936       0.039950
                                                         0.750068       0.467295
                                                         2.907977      -4.046643
                          1       7    5fyz2             0.090000       0.006871
                                                         0.191936       0.039950
                                                         0.750068       0.467295
                                                         2.907977      -4.046643
                          1       7    5fz3              0.090000       0.003073
                                                         0.191936       0.017866
                                                         0.750068       0.208981
                                                         2.907977      -1.809714

                          2       1    1s                0.293338      -0.001581
                                                         0.941883       0.076823

                          2       2    2s                0.293338       0.124568
                                                         0.941883       0.386056

                          2       3    3s                0.293338       0.411906
                                                         0.941883      -0.735854

     AE Potential information for                                            ALL

       Description:                                       All-electron potential
                                          Krack, Parrinello, PCCP 2, 2105 (2000)

       Gaussian exponent of the core charge distribution:               8.154466
       Electronic configuration (s p d ...):                           4   4   0


 MOLECULE KIND INFORMATION


 All atoms are their own molecule, skipping detailed information


 TOTAL NUMBERS AND MAXIMUM NUMBERS

  Total number of            - Atomic kinds:                                   1
                             - Atoms:                                          2
                             - Shell sets:                                     4
                             - Shells:                                        20
                             - Primitive Cartesian functions:                 24
                             - Cartesian basis functions:                     70
                             - Spherical basis functions:                     60

  Maximum angular momentum of the orbital basis functions:                     3


 MODULE QUICKSTEP: ATOMIC COORDINATES IN ANGSTROM

   Atom Kind Element         X             Y             Z       Z(eff)     Mass
      1    1 O     8     15.603900     15.000000     15.000000   8.0000  15.9994
      2    1 O     8     14.396100     15.000000     15.000000   8.0000  15.9994



 SCF PARAMETERS         Density guess:                                    ATOMIC
                        --------------------------------------------------------
                        max_scf:                                             500
                        max_scf_history:                                       0
                        max_diis:                                              4
                        --------------------------------------------------------
                        eps_scf:                                        1.00E-06
                        eps_scf_history:                                0.00E+00
                        eps_diis:                                       1.00E-01
                        eps_eigval:                                     1.00E-05
                        --------------------------------------------------------
                        level_shift [a.u.]:                             0.000000
                        added MOs                                        52    0
                        --------------------------------------------------------
                        Mixing method:                            BROYDEN_MIXING
                                                charge density mixing in g-space
                        --------------------------------------------------------
                        No outer SCF

 PW_GRID| Information for grid number                                          1
 PW_GRID| Grid distributed over                                    48 processors
 PW_GRID| Real space group dimensions                                    48    1
 PW_GRID| the grid is blocked:                                                NO
 PW_GRID| Cutoff [a.u.]                                                    250.0
 PW_GRID| spherical cutoff:                                                   NO
 PW_GRID|   Bounds   1           -202     202                Points:         405
 PW_GRID|   Bounds   2           -202     202                Points:         405
 PW_GRID|   Bounds   3           -202     202                Points:         405
 PW_GRID| Volume element (a.u.^3)  0.2743E-02     Volume (a.u.^3)    182205.0337
 PW_GRID| Grid span                                                    FULLSPACE
 PW_GRID|   Distribution                         Average         Max         Min
 PW_GRID|   G-Vectors                          1383960.9     1384290     1383885
 PW_GRID|   G-Rays                                3417.2        3418        3417
 PW_GRID|   Real Space Points                  1383960.9     1476225     1312200

 PW_GRID| Information for grid number                                          2
 PW_GRID| Number of the reference grid                                         1
 PW_GRID| Grid distributed over                                    48 processors
 PW_GRID| Real space group dimensions                                    48    1
 PW_GRID| the grid is blocked:                                                NO
 PW_GRID| Cutoff [a.u.]                                                     83.3
 PW_GRID| spherical cutoff:                                                   NO
 PW_GRID|   Bounds   1           -120     119                Points:         240
 PW_GRID|   Bounds   2           -120     119                Points:         240
 PW_GRID|   Bounds   3           -120     119                Points:         240
 PW_GRID| Volume element (a.u.^3)  0.1318E-01     Volume (a.u.^3)    182205.0337
 PW_GRID| Grid span                                                    FULLSPACE
 PW_GRID|   Distribution                         Average         Max         Min
 PW_GRID|   G-Vectors                           288000.0      288720      287520
 PW_GRID|   G-Rays                                1200.0        1203        1198
 PW_GRID|   Real Space Points                   288000.0      288000      288000

 PW_GRID| Information for grid number                                          3
 PW_GRID| Number of the reference grid                                         1
 PW_GRID| Grid distributed over                                    48 processors
 PW_GRID| Real space group dimensions                                    48    1
 PW_GRID| the grid is blocked:                                                NO
 PW_GRID| Cutoff [a.u.]                                                     27.8
 PW_GRID| spherical cutoff:                                                   NO
 PW_GRID|   Bounds   1            -67      67                Points:         135
 PW_GRID|   Bounds   2            -67      67                Points:         135
 PW_GRID|   Bounds   3            -67      67                Points:         135
 PW_GRID| Volume element (a.u.^3)  0.7406E-01     Volume (a.u.^3)    182205.0337
 PW_GRID| Grid span                                                    FULLSPACE
 PW_GRID|   Distribution                         Average         Max         Min
 PW_GRID|   G-Vectors                            51257.8       51570       51030
 PW_GRID|   G-Rays                                 379.7         382         378
 PW_GRID|   Real Space Points                    51257.8       54675       36450

 PW_GRID| Information for grid number                                          4
 PW_GRID| Number of the reference grid                                         1
 PW_GRID| Grid distributed over                                    48 processors
 PW_GRID| Real space group dimensions                                    48    1
 PW_GRID| the grid is blocked:                                                NO
 PW_GRID| Cutoff [a.u.]                                                      9.3
 PW_GRID| spherical cutoff:                                                   NO
 PW_GRID|   Bounds   1            -40      39                Points:          80
 PW_GRID|   Bounds   2            -40      39                Points:          80
 PW_GRID|   Bounds   3            -40      39                Points:          80
 PW_GRID| Volume element (a.u.^3)  0.3559         Volume (a.u.^3)    182205.0337
 PW_GRID| Grid span                                                    FULLSPACE
 PW_GRID|   Distribution                         Average         Max         Min
 PW_GRID|   G-Vectors                            10666.7       10800       10560
 PW_GRID|   G-Rays                                 133.3         135         132
 PW_GRID|   Real Space Points                    10666.7       12800        6400

 POISSON| Solver                                                         WAVELET
 POISSON| Wavelet| Scaling function                                           40
 POISSON| Periodicity                                                       NONE

 RS_GRID| Information for grid number                                          1
 RS_GRID|   Bounds   1           -202     202                Points:         405
 RS_GRID|   Bounds   2           -202     202                Points:         405
 RS_GRID|   Bounds   3           -202     202                Points:         405
 RS_GRID| Real space distribution over                                  3 groups
 RS_GRID| Real space distribution along direction                              1
 RS_GRID| Border size                                                         34
 RS_GRID| Real space distribution over                                  4 groups
 RS_GRID| Real space distribution along direction                              2
 RS_GRID| Border size                                                         34
 RS_GRID| Real space distribution over                                  4 groups
 RS_GRID| Real space distribution along direction                              3
 RS_GRID| Border size                                                         34
 RS_GRID|   Distribution                         Average         Max         Min
 RS_GRID|   Planes                                 203.0         203         203
 RS_GRID|   Distribution                         Average         Max         Min
 RS_GRID|   Planes                                 169.2         170         169
 RS_GRID|   Distribution                         Average         Max         Min
 RS_GRID|   Planes                                 169.2         170         169

 RS_GRID| Information for grid number                                          2
 RS_GRID|   Bounds   1           -120     119                Points:         240
 RS_GRID|   Bounds   2           -120     119                Points:         240
 RS_GRID|   Bounds   3           -120     119                Points:         240
 RS_GRID| Real space distribution over                                  3 groups
 RS_GRID| Real space distribution along direction                              1
 RS_GRID| Border size                                                         33
 RS_GRID| Real space distribution over                                  4 groups
 RS_GRID| Real space distribution along direction                              2
 RS_GRID| Border size                                                         33
 RS_GRID| Real space distribution over                                  4 groups
 RS_GRID| Real space distribution along direction                              3
 RS_GRID| Border size                                                         33
 RS_GRID|   Distribution                         Average         Max         Min
 RS_GRID|   Planes                                 146.0         146         146
 RS_GRID|   Distribution                         Average         Max         Min
 RS_GRID|   Planes                                 126.0         126         126
 RS_GRID|   Distribution                         Average         Max         Min
 RS_GRID|   Planes                                 126.0         126         126

 RS_GRID| Information for grid number                                          3
 RS_GRID|   Bounds   1            -67      67                Points:         135
 RS_GRID|   Bounds   2            -67      67                Points:         135
 RS_GRID|   Bounds   3            -67      67                Points:         135
 RS_GRID| Real space fully replicated
 RS_GRID| Group size                                                           1

 RS_GRID| Information for grid number                                          4
 RS_GRID|   Bounds   1            -40      39                Points:          80
 RS_GRID|   Bounds   2            -40      39                Points:          80
 RS_GRID|   Bounds   3            -40      39                Points:          80
 RS_GRID| Real space fully replicated
 RS_GRID| Group size                                                           1

  HFX_INFO| Replica ID:                                                        1
  HFX_INFO| FRACTION:                                               0.2500000000
  HFX_INFO| Interaction Potential:                                       COULOMB
  HFX_INFO| EPS_SCHWARZ:                                                 1.0E-10
  HFX_INFO| EPS_SCHWARZ_FORCES                                           1.0E-08
  HFX_INFO| EPS_STORAGE_SCALING:                                         1.0E+00
  HFX_INFO| NBINS:                                                            64
  HFX_INFO| BLOCK_SIZE:                                                        1
  HFX_INFO| Number of periodic shells considered:                           NONE
  HFX_INFO| Number of periodic cells considered:                            NONE

 
 RI-RPA| using GPW style
 

 OVERLAP MATRIX CONDITION NUMBER
 1-Norm Condition Number (Estimate)
   CN : |A|*|A^-1|:  5.696E+000 *  6.106E+003   = 3.478E+004  Log(1-CN):  4.5413
 1-Norm and 2-Norm Condition Numbers using Diagonalization
   CN : |A|*|A^-1|:  5.696E+000 *  6.106E+003   = 3.478E+004  Log(1-CN):  4.5413
   CN : max/min ev:  4.081E+000 /  2.235E-004   = 1.825E+004  Log(2-CN):  4.2614

 Number of electrons:                                                         16
 Number of occupied orbitals:                                                  8
 Number of molecular orbitals:                                                60

 Number of orbital functions:                                                 60
 Number of independent orbital functions:                                     60

 Extrapolation method: initial_guess

 Atomic guess: The first density matrix is obtained in terms of atomic orbitals
               and electronic configurations assigned to each atomic kind

 Guess for atomic kind: O

 Electronic structure
    Total number of core electrons                                          0.00
    Total number of valence electrons                                       8.00
    Total number of electrons                                               8.00
    Multiplicity                                                   not specified
    S      2.00  2.00
    P      4.00


 *******************************************************************************
                  Iteration          Convergence                     Energy [au]
 *******************************************************************************
                          1        0.848674                     -74.203659346590
                          2        0.676538                     -74.224350300929
                          3        0.118146E-01                 -74.325384117638
                          4        0.875023E-03                 -74.325411956579
                          5        0.262407E-04                 -74.325412100097
                          6        0.953925E-07                 -74.325412100225

 Energy components [Hartree]           Total Energy ::          -74.325412100225
                                        Band Energy ::          -40.703914598313
                                     Kinetic Energy ::           74.466117831440
                                   Potential Energy ::         -148.791529931665
                                      Virial (-V/T) ::            1.998110473121
                                        Core Energy ::         -102.666843544949
                                          XC Energy ::           -7.743421966386
                                     Coulomb Energy ::           36.084853411110

 Orbital energies  State     L     Occupation   Energy[a.u.]          Energy[eV]

                       1     0          2.000     -18.799663         -511.564844
                       2     0          2.000      -0.852501          -23.197720

                       1     1          4.000      -0.349897           -9.521179


 Total Electron Density at R=0:                                       292.094851
 Re-scaling the density matrix to get the right number of electrons
                  # Electrons              Trace(P)               Scaling factor
                           16                16.000                        1.000


 SCF WAVEFUNCTION OPTIMIZATION

  Step     Update method      Time    Convergence         Total energy    Change
  ------------------------------------------------------------------------------

  HFX_MEM_INFO| Est. max. program size before HFX [MiB]:                    1303
  HFX_MEM_INFO| Number of cart. primitive ERI's calculated:            760130289
  HFX_MEM_INFO| Number of sph. ERI's calculated:                         4860000
  HFX_MEM_INFO| Number of sph. ERI's stored in-core:                     4860000
  HFX_MEM_INFO| Number of sph. ERI's stored on disk:                           0
  HFX_MEM_INFO| Number of sph. ERI's calculated on the fly:                    0
  HFX_MEM_INFO| Total memory consumption ERI's RAM [MiB]:                     22
  HFX_MEM_INFO| Whereof max-vals [MiB]:                                        2
  HFX_MEM_INFO| Total compression factor ERI's RAM:                         1.75
  HFX_MEM_INFO| Total memory consumption ERI's disk [MiB]:                     0
  HFX_MEM_INFO| Total compression factor ERI's disk:                        0.00
  HFX_MEM_INFO| Size of density/Fock matrix [MiB]:                             0
  HFX_MEM_INFO| Size of buffers [MiB]:                                        16
  HFX_MEM_INFO| Est. max. program size after HFX  [MiB]:                    1846

     1 NoMix/Diag. 0.10E+00   17.1     1.13822831      -150.1636200753 -1.50E+02
     2 Broy./Diag. 0.10E+00    2.6     0.03820660      -149.6438959606  5.20E-01
     3 Broy./Diag. 0.10E+00    2.6     0.03883408      -149.7745521756 -1.31E-01
     4 Broy./Diag. 0.10E+00    2.6     0.01448476      -150.0297280627 -2.55E-01
     5 Broy./Diag. 0.10E+00    2.7     0.00603419      -150.0287434247  9.85E-04
     6 Broy./Diag. 0.10E+00    2.8     0.02288458      -149.9136388157  1.15E-01
     7 Broy./Diag. 0.10E+00    2.7     0.00156773      -149.8480139056  6.56E-02
     8 Broy./Diag. 0.10E+00    2.8     0.00085932      -149.8559046687 -7.89E-03
     9 Broy./Diag. 0.10E+00    2.8     0.00264123      -149.8953617008 -3.95E-02
    10 Broy./Diag. 0.10E+00    2.9     0.00114469      -149.9168093959 -2.14E-02
    11 Broy./Diag. 0.10E+00    2.9     0.00183275      -149.9019094559  1.49E-02
    12 Broy./Diag. 0.10E+00    2.9     0.00062975      -149.8958104425  6.10E-03
    13 Broy./Diag. 0.10E+00    2.9     0.00082590      -149.8978529384 -2.04E-03
    14 Broy./Diag. 0.10E+00    2.9     0.00170258      -149.8974831957  3.70E-04
    15 Broy./Diag. 0.10E+00    2.9     0.00019490      -149.8973602910  1.23E-04
    16 Broy./Diag. 0.10E+00    2.9     0.00171289      -149.9000917816 -2.73E-03
    17 Broy./Diag. 0.10E+00    2.9     0.00102729      -149.9008446025 -7.53E-04
    18 Broy./Diag. 0.10E+00    3.1     0.00027777      -149.9002639922  5.81E-04
    19 Broy./Diag. 0.10E+00    3.0     0.00056326      -149.9003580410 -9.40E-05
    20 Broy./Diag. 0.10E+00    2.9     0.00023597      -149.8996399928  7.18E-04
    21 Broy./Diag. 0.10E+00    3.0     0.00018791      -149.8981809717  1.46E-03
    22 Broy./Diag. 0.10E+00    2.9     0.00003477      -149.8978641629  3.17E-04
    23 Broy./Diag. 0.10E+00    3.0     0.00003864      -149.8981555695 -2.91E-04
    24 Broy./Diag. 0.10E+00    2.9     0.00010274      -149.8981176454  3.79E-05
    25 Broy./Diag. 0.10E+00    2.9     0.00013403      -149.8980368731  8.08E-05
    26 Broy./Diag. 0.10E+00    2.9     0.00010879      -149.8980323973  4.48E-06
    27 Broy./Diag. 0.10E+00    2.9     0.00001930      -149.8979432638  8.91E-05
    28 Broy./Diag. 0.10E+00    3.0     0.00005140      -149.8979515646 -8.30E-06
    29 Broy./Diag. 0.10E+00    2.9     0.00001709      -149.8980150146 -6.34E-05
    30 Broy./Diag. 0.10E+00    2.9     0.00002196      -149.8980881959 -7.32E-05
    31 Broy./Diag. 0.10E+00    2.9     0.00002972      -149.8980997332 -1.15E-05
    32 Broy./Diag. 0.10E+00    2.9     0.00004302      -149.8980836880  1.60E-05
    33 Broy./Diag. 0.10E+00    2.9     0.00003092      -149.8980949229 -1.12E-05
    34 Broy./Diag. 0.10E+00    3.0     0.00004679      -149.8981099444 -1.50E-05
    35 Broy./Diag. 0.10E+00    2.9     0.00006788      -149.8981554048 -4.55E-05
    36 Broy./Diag. 0.10E+00    2.9     0.00009005      -149.8981700035 -1.46E-05
    37 Broy./Diag. 0.10E+00    2.9     0.00013808      -149.8981648587  5.14E-06
    38 Broy./Diag. 0.10E+00    2.9     0.00021543      -149.8981554232  9.44E-06
    39 Broy./Diag. 0.10E+00    3.1     0.00033226      -149.8981480282  7.39E-06
    40 Broy./Diag. 0.10E+00    3.0     0.00051827      -149.8981483297 -3.02E-07
    41 Broy./Diag. 0.10E+00    2.9     0.00080916      -149.8981524347 -4.10E-06
    42 Broy./Diag. 0.10E+00    2.9     0.00125898      -149.8981651958 -1.28E-05
    43 Broy./Diag. 0.10E+00    3.0     0.00196199      -149.8981750913 -9.90E-06
    44 Broy./Diag. 0.10E+00    2.9     0.00304911      -149.8981954997 -2.04E-05
    45 Broy./Diag. 0.10E+00    3.0     0.00473508      -149.8982092432 -1.37E-05
    46 Broy./Diag. 0.10E+00    2.9     0.00736427      -149.8982173690 -8.13E-06
    47 Broy./Diag. 0.10E+00    2.9     0.01145571      -149.8981465979  7.08E-05
    48 Broy./Diag. 0.10E+00    2.9     0.01773544      -149.8980154501  1.31E-04
    49 Broy./Diag. 0.10E+00    2.9     0.02725685      -149.8978632097  1.52E-04
    50 Broy./Diag. 0.10E+00    3.1     0.04131645      -149.8976649800  1.98E-04
    51 Broy./Diag. 0.10E+00    3.0     0.06063274      -149.8972830639  3.82E-04
    52 Broy./Diag. 0.10E+00    3.0     0.08260787      -149.8962868721  9.96E-04
    53 Broy./Diag. 0.10E+00    3.0     0.09621545      -149.8939860472  2.30E-03
    54 Broy./Diag. 0.10E+00    2.9     0.14311268      -149.8891769356  4.81E-03
    55 Broy./Diag. 0.10E+00    2.9     0.17609707      -149.8807665828  8.41E-03
    56 Broy./Diag. 0.10E+00    3.0     0.16749894      -149.8690757164  1.17E-02
    57 Broy./Diag. 0.10E+00    3.0     0.12916582      -149.8567353821  1.23E-02
    58 Broy./Diag. 0.10E+00    2.9     0.08599430      -149.8464938323  1.02E-02
    59 Broy./Diag. 0.10E+00    2.9     0.07728327      -149.8393491233  7.14E-03
    60 Broy./Diag. 0.10E+00    2.9     0.06435892      -149.8349889866  4.36E-03
    61 Broy./Diag. 0.10E+00    2.9     0.05072548      -149.8325474089  2.44E-03
    62 Broy./Diag. 0.10E+00    2.9     0.03901066      -149.8314597251  1.09E-03
    63 Broy./Diag. 0.10E+00    3.1     0.03069684      -149.8324692239 -1.01E-03
    64 Broy./Diag. 0.10E+00    2.9     0.02693197      -149.8451452095 -1.27E-02
    65 Broy./Diag. 0.10E+00    2.9     0.01929968      -149.8467942318 -1.65E-03
    66 Broy./Diag. 0.10E+00    2.9     0.01734857      -149.8456445881  1.15E-03
    67 Broy./Diag. 0.10E+00    2.9     0.01556908      -149.8691401224 -2.35E-02
    68 Broy./Diag. 0.10E+00    2.9     0.01886029      -149.9180656204 -4.89E-02
    69 Broy./Diag. 0.10E+00    3.1     0.04822875      -149.9765106155 -5.84E-02
    70 Broy./Diag. 0.10E+00    2.9     0.04084954      -149.9671629101  9.35E-03
    71 Broy./Diag. 0.10E+00    3.0     0.09102074      -149.9854122823 -1.82E-02
    72 Broy./Diag. 0.10E+00    2.9     0.11250172      -150.0443854902 -5.90E-02
    73 Broy./Diag. 0.10E+00    2.9     0.09952935      -150.0430678447  1.32E-03
    74 Broy./Diag. 0.10E+00    3.0     0.12615547      -150.0038308898  3.92E-02
    75 Broy./Diag. 0.10E+00    3.0     0.16948995      -150.0482166289 -4.44E-02
    76 Broy./Diag. 0.10E+00    3.0     0.10324670      -150.0512013680 -2.98E-03
    77 Broy./Diag. 0.10E+00    3.1     0.16169517      -149.9668815970  8.43E-02
    78 Broy./Diag. 0.10E+00    2.9     0.11480788      -149.9015540865  6.53E-02
    79 Broy./Diag. 0.10E+00    2.9     0.07769097      -149.8785889066  2.30E-02
    80 Broy./Diag. 0.10E+00    2.9     0.03820973      -149.8739456053  4.64E-03
    81 Broy./Diag. 0.10E+00    2.9     0.02244989      -149.8880216328 -1.41E-02
    82 Broy./Diag. 0.10E+00    3.1     0.03886542      -149.8460537727  4.20E-02
    83 Broy./Diag. 0.10E+00    2.9     0.03891899      -150.0185499420 -1.72E-01
    84 Broy./Diag. 0.10E+00    2.9     0.08645996      -150.0018782961  1.67E-02
    85 Broy./Diag. 0.10E+00    2.9     0.32067942      -149.9815867430  2.03E-02
    86 Broy./Diag. 0.10E+00    2.9     0.17011868      -149.9645576277  1.70E-02
    87 Broy./Diag. 0.10E+00    2.9     0.04755141      -149.8614519301  1.03E-01
    88 Broy./Diag. 0.10E+00    3.0     0.06670881      -149.9091583777 -4.77E-02
    89 Broy./Diag. 0.10E+00    3.0     0.19819783      -149.9226207185 -1.35E-02
    90 Broy./Diag. 0.10E+00    2.9     0.20486073      -149.9437818211 -2.12E-02
    91 Broy./Diag. 0.10E+00    3.0     0.02817720      -149.9297708520  1.40E-02
    92 Broy./Diag. 0.10E+00    2.9     0.06196001      -149.9409590900 -1.12E-02
    93 Broy./Diag. 0.10E+00    2.9     0.06854259      -149.9876166048 -4.67E-02
    94 Broy./Diag. 0.10E+00    3.0     0.08361818      -149.9941276870 -6.51E-03
    95 Broy./Diag. 0.10E+00    2.9     0.17851406      -149.9980966067 -3.97E-03
    96 Broy./Diag. 0.10E+00    2.9     0.12766837      -150.0294198224 -3.13E-02
    97 Broy./Diag. 0.10E+00    2.9     0.09841588      -150.0297606984 -3.41E-04
    98 Broy./Diag. 0.10E+00    2.9     0.04886790      -150.0127145608  1.70E-02
    99 Broy./Diag. 0.10E+00    2.9     0.02218187      -150.0012216695  1.15E-02
   100 Broy./Diag. 0.10E+00    2.9     0.04376931      -150.0092226124 -8.00E-03
   101 Broy./Diag. 0.10E+00    3.0     0.04813317      -150.0137658993 -4.54E-03
   102 Broy./Diag. 0.10E+00    3.0     0.07271627      -150.0160156605 -2.25E-03
   103 Broy./Diag. 0.10E+00    2.9     0.15164783      -150.0045959943  1.14E-02
   104 Broy./Diag. 0.10E+00    2.9     0.16919451      -150.0097306000 -5.13E-03
   105 Broy./Diag. 0.10E+00    2.9     0.07316453      -150.0067751910  2.96E-03
   106 Broy./Diag. 0.10E+00    2.9     0.04465843      -149.9984646963  8.31E-03
   107 Broy./Diag. 0.10E+00    2.9     0.05894789      -149.9784383254  2.00E-02
   108 Broy./Diag. 0.10E+00    2.9     0.06960493      -149.9877290547 -9.29E-03
   109 Broy./Diag. 0.10E+00    2.9     0.09336963      -149.9826934656  5.04E-03
   110 Broy./Diag. 0.10E+00    2.9     0.13439804      -149.9550830297  2.76E-02
   111 Broy./Diag. 0.10E+00    2.9     0.12539170      -149.9478708185  7.21E-03
   112 Broy./Diag. 0.10E+00    2.9     0.11473308      -149.9587341367 -1.09E-02
   113 Broy./Diag. 0.10E+00    2.9     0.07570942      -149.9751991340 -1.65E-02
   114 Broy./Diag. 0.10E+00    2.9     0.05515023      -149.9790838902 -3.88E-03
   115 Broy./Diag. 0.10E+00    2.9     0.03412511      -149.9806932674 -1.61E-03
   116 Broy./Diag. 0.10E+00    2.9     0.02419802      -149.9837822928 -3.09E-03
   117 Broy./Diag. 0.10E+00    2.9     0.01588397      -149.9681184092  1.57E-02
   118 Broy./Diag. 0.10E+00    2.9     0.04726647      -149.9577229686  1.04E-02
   119 Broy./Diag. 0.10E+00    2.9     0.07878109      -149.9565239424  1.20E-03
   120 Broy./Diag. 0.10E+00    2.9     0.09720051      -149.9646033572 -8.08E-03
   121 Broy./Diag. 0.10E+00    2.9     0.12862929      -149.9562073206  8.40E-03
   122 Broy./Diag. 0.10E+00    2.9     0.16693585      -149.9458205407  1.04E-02
   123 Broy./Diag. 0.10E+00    2.9     0.15936774      -149.9440954712  1.73E-03
   124 Broy./Diag. 0.10E+00    2.9     0.11306623      -149.9486117027 -4.52E-03
   125 Broy./Diag. 0.10E+00    2.9     0.09555334      -149.9506489112 -2.04E-03
   126 Broy./Diag. 0.10E+00    2.9     0.08592935      -149.9432353783  7.41E-03
   127 Broy./Diag. 0.10E+00    2.9     0.07120275      -149.9308995549  1.23E-02
   128 Broy./Diag. 0.10E+00    2.9     0.06230623      -149.9190739551  1.18E-02
   129 Broy./Diag. 0.10E+00    3.0     0.06292198      -149.9176380574  1.44E-03
   130 Broy./Diag. 0.10E+00    2.9     0.05998302      -149.9197304165 -2.09E-03
   131 Broy./Diag. 0.10E+00    2.9     0.06407956      -149.9202392529 -5.09E-04
   132 Broy./Diag. 0.10E+00    2.9     0.11319561      -149.9486408359 -2.84E-02
   133 Broy./Diag. 0.10E+00    2.9     0.10521564      -149.9603949296 -1.18E-02
   134 Broy./Diag. 0.10E+00    2.9     0.10798566      -149.9534351190  6.96E-03
   135 Broy./Diag. 0.10E+00    2.9     0.10206881      -149.9540182987 -5.83E-04
   136 Broy./Diag. 0.10E+00    2.9     0.07020318      -149.9455316112  8.49E-03
   137 Broy./Diag. 0.10E+00    2.9     0.06295575      -149.9337644355  1.18E-02
   138 Broy./Diag. 0.10E+00    2.9     0.03990883      -149.9489046360 -1.51E-02
   139 Broy./Diag. 0.10E+00    2.9     0.08259702      -149.9072559854  4.16E-02
   140 Broy./Diag. 0.10E+00    2.9     0.03217592      -149.8896518563  1.76E-02
   141 Broy./Diag. 0.10E+00    2.9     0.08267940      -149.8908456525 -1.19E-03
[...]
 *    |             please set the keyword IGNORE_CONVERGENCE_FAILURE.         *
 *  O/|                                                                        *
 * /| |                                                                        *
 * / \                                                            qs_scf.F:611 *
 *******************************************************************************


 ===== Routine Calling Stack ===== 

            3 scf_env_do_scf
            2 qs_energies
            1 CP2K

 *******************************************************************************
 *   ___                                                                       *
 *  /   \                                                                      *
 * [ABORT]                                                                     *
 *  \___/     SCF run NOT converged. To continue the calculation regardless,   *
 *    |             please set the keyword IGNORE_CONVERGENCE_FAILURE.         *
 *  O/|                                                                        *
 * /| |                                                                        *
 * / \                                                            qs_scf.F:611 *
 *******************************************************************************


 ===== Routine Calling Stack ===== 

            3 scf_env_do_scf
            2 qs_energies
            1 CP2K

 *******************************************************************************
 *   ___                                                                       *
 *  /   \                                                                      *
 * [ABORT]                                                                     *
 *  \___/     SCF run NOT converged. To continue the calculation regardless,   *
 *    |             please set the keyword IGNORE_CONVERGENCE_FAILURE.         *
 *  O/|                                                                        *
 * /| |                                                                        *
 * / \                                                            qs_scf.F:611 *
 *******************************************************************************


 ===== Routine Calling Stack ===== 

            3 scf_env_do_scf
            2 qs_energies
            1 CP2K

 *******************************************************************************
 *   ___                                                                       *
 *  /   \                                                                      *
 * [ABORT]                                                                     *
 *  \___/     SCF run NOT converged. To continue the calculation regardless,   *
 *    |             please set the keyword IGNORE_CONVERGENCE_FAILURE.         *
 *  O/|                                                                        *
 * /| |                                                                        *
 * / \                                                            qs_scf.F:611 *
 *******************************************************************************


 ===== Routine Calling Stack ===== 

            3 scf_env_do_scf
            2 qs_energies
            1 CP2K

 *******************************************************************************
 *   ___                                                                       *
 *  /   \                                                                      *
 * [ABORT]                                                                     *
 *  \___/     SCF run NOT converged. To continue the calculation regardless,   *
 *    |             please set the keyword IGNORE_CONVERGENCE_FAILURE.         *
 *  O/|                                                                        *
 * /| |                                                                        *
 * / \                                                            qs_scf.F:611 *
 *******************************************************************************


 ===== Routine Calling Stack ===== 

            3 scf_env_do_scf
            2 qs_energies
            1 CP2K

 *******************************************************************************
 *   ___                                                                       *
 *  /   \                                                                      *
 * [ABORT]                                                                     *
 *  \___/     SCF run NOT converged. To continue the calculation regardless,   *
 *    |             please set the keyword IGNORE_CONVERGENCE_FAILURE.         *
 *  O/|                                                                        *
 * /| |                                                                        *
 * / \                                                            qs_scf.F:611 *
 *******************************************************************************


 ===== Routine Calling Stack ===== 

            3 scf_env_do_scf
            2 qs_energies
            1 CP2K

 *******************************************************************************
 *   ___                                                                       *
 *  /   \                                                                      *
 * [ABORT]                                                                     *
 *  \___/     SCF run NOT converged. To continue the calculation regardless,   *
 *    |             please set the keyword IGNORE_CONVERGENCE_FAILURE.         *
 *  O/|                                                                        *
 * /| |                                                                        *
 * / \                                                            qs_scf.F:611 *
 *******************************************************************************


 ===== Routine Calling Stack ===== 

            3 scf_env_do_scf
            2 qs_energies
            1 CP2K

 *******************************************************************************
 *   ___                                                                       *
 *  /   \                                                                      *
 * [ABORT]                                                                     *
 *  \___/     SCF run NOT converged. To continue the calculation regardless,   *
 *    |             please set the keyword IGNORE_CONVERGENCE_FAILURE.         *
 *  O/|                                                                        *
 * /| |                                                                        *
 * / \                                                            qs_scf.F:611 *
 *******************************************************************************


 ===== Routine Calling Stack ===== 

            3 scf_env_do_scf
            2 qs_energies
            1 CP2K

 *******************************************************************************
 *   ___                                                                       *
 *  /   \                                                                      *
 * [ABORT]                                                                     *
 *  \___/     SCF run NOT converged. To continue the calculation regardless,   *
 *    |             please set the keyword IGNORE_CONVERGENCE_FAILURE.         *
 *  O/|                                                                        *
 * /| |                                                                        *
 * / \                                                            qs_scf.F:611 *
 *******************************************************************************


 ===== Routine Calling Stack ===== 

            3 scf_env_do_scf
            2 qs_energies
            1 CP2K

 *******************************************************************************
 *   ___                                                                       *
 *  /   \                                                                      *
 * [ABORT]                                                                     *
 *  \___/     SCF run NOT converged. To continue the calculation regardless,   *
 *    |             please set the keyword IGNORE_CONVERGENCE_FAILURE.         *
 *  O/|                                                                        *
 * /| |                                                                        *
 * / \                                                            qs_scf.F:611 *
 *******************************************************************************


 ===== Routine Calling Stack ===== 

            3 scf_env_do_scf
            2 qs_energies
            1 CP2K

 *******************************************************************************
 *   ___                                                                       *
 *  /   \                                                                      *
 * [ABORT]                                                                     *
 *  \___/     SCF run NOT converged. To continue the calculation regardless,   *
 *    |             please set the keyword IGNORE_CONVERGENCE_FAILURE.         *
 *  O/|                                                                        *
 * /| |                                                                        *
 * / \                                                            qs_scf.F:611 *
 *******************************************************************************


 ===== Routine Calling Stack ===== 

            3 scf_env_do_scf
            2 qs_energies
            1 CP2K

 *******************************************************************************
 *   ___                                                                       *
 *  /   \                                                                      *
 * [ABORT]                                                                     *
 *  \___/     SCF run NOT converged. To continue the calculation regardless,   *
 *    |             please set the keyword IGNORE_CONVERGENCE_FAILURE.         *
 *  O/|                                                                        *
 * /| |                                                                        *
 * / \                                                            qs_scf.F:611 *
 *******************************************************************************


 ===== Routine Calling Stack ===== 

            3 scf_env_do_scf
            2 qs_energies
            1 CP2K

 *******************************************************************************
 *   ___                                                                       *
 *  /   \                                                                      *
 * [ABORT]                                                                     *
 *  \___/     SCF run NOT converged. To continue the calculation regardless,   *
 *    |             please set the keyword IGNORE_CONVERGENCE_FAILURE.         *
 *  O/|                                                                        *
 * /| |                                                                        *
 * / \                                                            qs_scf.F:611 *
 *******************************************************************************


 ===== Routine Calling Stack ===== 

            3 scf_env_do_scf
            2 qs_energies
            1 CP2K

 *******************************************************************************
 *   ___                                                                       *
 *  /   \                                                                      *
 * [ABORT]                                                                     *
 *  \___/     SCF run NOT converged. To continue the calculation regardless,   *
 *    |             please set the keyword IGNORE_CONVERGENCE_FAILURE.         *
 *  O/|                                                                        *
 * /| |                                                                        *
 * / \                                                            qs_scf.F:611 *
 *******************************************************************************


 ===== Routine Calling Stack ===== 

            3 scf_env_do_scf
            2 qs_energies
            1 CP2K

 *******************************************************************************
 *   ___                                                                       *
 *  /   \                                                                      *
 * [ABORT]                                                                     *
 *  \___/     SCF run NOT converged. To continue the calculation regardless,   *
 *    |             please set the keyword IGNORE_CONVERGENCE_FAILURE.         *
 *  O/|                                                                        *
 * /| |                                                                        *
 * / \                                                            qs_scf.F:611 *
 *******************************************************************************


 ===== Routine Calling Stack ===== 

            3 scf_env_do_scf
            2 qs_energies
            1 CP2K

 *******************************************************************************
 *   ___                                                                       *
 *  /   \                                                                      *
 * [ABORT]                                                                     *
 *  \___/     SCF run NOT converged. To continue the calculation regardless,   *
 *    |             please set the keyword IGNORE_CONVERGENCE_FAILURE.         *
 *  O/|                                                                        *
 * /| |                                                                        *
 * / \                                                            qs_scf.F:611 *
 *******************************************************************************


 ===== Routine Calling Stack ===== 

            3 scf_env_do_scf
            2 qs_energies
            1 CP2K

 *******************************************************************************
 *   ___                                                                       *
 *  /   \                                                                      *
 * [ABORT]                                                                     *
 *  \___/     SCF run NOT converged. To continue the calculation regardless,   *
 *    |             please set the keyword IGNORE_CONVERGENCE_FAILURE.         *
 *  O/|                                                                        *
 * /| |                                                                        *
 * / \                                                            qs_scf.F:611 *
 *******************************************************************************


 ===== Routine Calling Stack ===== 

            3 scf_env_do_scf
            2 qs_energies
            1 CP2K

 *******************************************************************************
 *   ___                                                                       *
 *  /   \                                                                      *
 * [ABORT]                                                                     *
 *  \___/     SCF run NOT converged. To continue the calculation regardless,   *
 *    |             please set the keyword IGNORE_CONVERGENCE_FAILURE.         *
 *  O/|                                                                        *
 * /| |                                                                        *
 * / \                                                            qs_scf.F:611 *
 *******************************************************************************


 ===== Routine Calling Stack ===== 

            3 scf_env_do_scf
            2 qs_energies
            1 CP2K

 *******************************************************************************
 *   ___                                                                       *
 *  /   \                                                                      *
 * [ABORT]                                                                     *
 *  \___/     SCF run NOT converged. To continue the calculation regardless,   *
 *    |             please set the keyword IGNORE_CONVERGENCE_FAILURE.         *
 *  O/|                                                                        *
 * /| |                                                                        *
 * / \                                                            qs_scf.F:611 *
 *******************************************************************************


 ===== Routine Calling Stack ===== 

            3 scf_env_do_scf
            2 qs_energies
            1 CP2K

 *******************************************************************************
 *   ___                                                                       *
 *  /   \                                                                      *
 * [ABORT]                                                                     *
 *  \___/     SCF run NOT converged. To continue the calculation regardless,   *
 *    |             please set the keyword IGNORE_CONVERGENCE_FAILURE.         *
 *  O/|                                                                        *
 * /| |                                                                        *
 * / \                                                            qs_scf.F:611 *
 *******************************************************************************


 ===== Routine Calling Stack ===== 

            3 scf_env_do_scf
            2 qs_energies
            1 CP2K

 *******************************************************************************
 *   ___                                                                       *
 *  /   \                                                                      *
 * [ABORT]                                                                     *
 *  \___/     SCF run NOT converged. To continue the calculation regardless,   *
 *    |             please set the keyword IGNORE_CONVERGENCE_FAILURE.         *
 *  O/|                                                                        *
 * /| |                                                                        *
 * / \                                                            qs_scf.F:611 *
 *******************************************************************************


 ===== Routine Calling Stack ===== 

            3 scf_env_do_scf
            2 qs_energies
            1 CP2K

 *******************************************************************************
 *   ___                                                                       *
 *  /   \                                                                      *
 * [ABORT]                                                                     *
 *  \___/     SCF run NOT converged. To continue the calculation regardless,   *
 *    |             please set the keyword IGNORE_CONVERGENCE_FAILURE.         *
 *  O/|                                                                        *
 * /| |                                                                        *
 * / \                                                            qs_scf.F:611 *
 *******************************************************************************


 ===== Routine Calling Stack ===== 

            3 scf_env_do_scf
            2 qs_energies
            1 CP2K
