 DBCSR| CPU Multiplication driver                                           BLAS (U)
 DBCSR| Multrec recursion limit                                              512 (U)
 DBCSR| Multiplication stack size                                           1000 (D)
 DBCSR| Maximum elements for images                                    UNLIMITED (U)
 DBCSR| Multiplicative factor virtual images                                   1 (U)
 DBCSR| Use multiplication densification                                       T (D)
 DBCSR| Multiplication size stacks                                             3 (U)
 DBCSR| Use memory pool for CPU allocation                                     F (U)
 DBCSR| Number of 3D layers                                               SINGLE (U)
 DBCSR| Use MPI memory allocation                                              F (U)
 DBCSR| Use RMA algorithm                                                      F (U)
 DBCSR| Use Communication thread                                               T (U)
 DBCSR| Communication thread load                                             75 (D)
 DBCSR| MPI: My process id                                                     0
 DBCSR| MPI: Number of processes                                              24
 DBCSR| OMP: Current number of threads                                         4
 DBCSR| OMP: Max number of threads                                             4
 DBCSR| Split modifier for TAS multiplication algorithm                  1.0E+00 (U)


  **** **** ******  **  PROGRAM STARTED AT               2025-03-11 00:20:10.250
 ***** ** ***  *** **   PROGRAM STARTED ON                          i03r11c05s09
 **    ****   ******    PROGRAM STARTED BY                               di38fab
 ***** **    ** ** **   PROGRAM PROCESS ID                               2863094
  **** **  *******  **  PROGRAM STARTED IN /hppfs/scratch/04/di38fab/05_MOL/W4-1
                                           1+ALK/h2/aug-cc-pV5Z

 CP2K| version string:                 CP2K version 2025.1 (Development Version)
 CP2K| source code revision number:                                  git:47877ba
 CP2K| cp2kflags: omp libint fftw3 libxc parallel scalapack max_contr=4         
 CP2K| is freely available from                            https://www.cp2k.org/
 CP2K| Program compiled at                          Thu Feb 20 16:00:34 CET 2025
 CP2K| Program compiled on                                               login04
 CP2K| Program compiled for                                        Supermuc-foss
 CP2K| Data directory path          /hppfs/work/pn36zo/di38fab/newcp2k/cp2k/data
 CP2K| Input file name                                                    GW.inp

 GLOBAL| Force Environment number                                              1
 GLOBAL| Basis set file name            /hppfs/scratch/04/di38fab/04_TMD/BASIS_A
 GLOBAL| Potential file name            /hppfs/work/pn36zo/di38fab/cp2k/data/ALL
 GLOBAL| MM Potential file name                                     MM_POTENTIAL
 GLOBAL| Coordinate file name                                      __STD_INPUT__
 GLOBAL| Method name                                                        CP2K
 GLOBAL| Project name                                                       MoS2
 GLOBAL| Run type                                                         ENERGY
 GLOBAL| FFT library                                                       FFTW3
 GLOBAL| Diagonalization library                                       ScaLAPACK
 GLOBAL| DGEMM library                                                      BLAS
 GLOBAL| Orthonormality check for eigenvectors                          DISABLED
 GLOBAL| Matrix multiplication library                                 ScaLAPACK
 GLOBAL| All-to-all communication in single precision                          F
 GLOBAL| FFTs using library dependent lengths                                  F
 GLOBAL| Grid backend                                                       AUTO
 GLOBAL| Global print level                                               MEDIUM
 GLOBAL| MPI I/O enabled                                                       T
 GLOBAL| Total number of message passing processes                            24
 GLOBAL| Number of threads for this process                                    4
 GLOBAL| This output is from process                                           0
 GLOBAL| OpenMP stack size per thread (OMP_STACKSIZE)                    default
 GLOBAL| CPU model name             Intel(R) Xeon(R) Platinum 8174 CPU @ 3.10GHz

 MEMORY| system memory details [Kb]
 MEMORY|                        rank 0           min           max       average
 MEMORY| MemTotal             98436664      98436660      98436664      98436662
 MEMORY| MemFree              83680224      83680224      84035188      83857706
 MEMORY| Buffers                     0             0             0             0
 MEMORY| Cached                2429156       2429156       2443240       2436198
 MEMORY| Slab                  1259940       1245344       1259940       1252642
 MEMORY| SReclaimable           275668        273524        275668        274596
 MEMORY| MemLikelyFree        86385048      86385048      86751952      86568500


 *** Fundamental physical constants (SI units) ***

 *** Literature: B. J. Mohr and B. N. Taylor,
 ***             CODATA recommended values of the fundamental physical
 ***             constants: 2006, Web Version 5.1
 ***             http://physics.nist.gov/constants

 Speed of light in vacuum [m/s]                             2.99792458000000E+08
 Magnetic constant or permeability of vacuum [N/A**2]       1.25663706143592E-06
 Electric constant or permittivity of vacuum [F/m]          8.85418781762039E-12
 Planck constant (h) [J*s]                                  6.62606896000000E-34
 Planck constant (h-bar) [J*s]                              1.05457162825177E-34
 Elementary charge [C]                                      1.60217648700000E-19
 Electron mass [kg]                                         9.10938215000000E-31
 Electron g factor [ ]                                     -2.00231930436220E+00
 Proton mass [kg]                                           1.67262163700000E-27
 Fine-structure constant                                    7.29735253760000E-03
 Rydberg constant [1/m]                                     1.09737315685270E+07
 Avogadro constant [1/mol]                                  6.02214179000000E+23
 Boltzmann constant [J/K]                                   1.38065040000000E-23
 Atomic mass unit [kg]                                      1.66053878200000E-27
 Bohr radius [m]                                            5.29177208590000E-11

 *** Conversion factors ***

 [u] -> [a.u.]                                              1.82288848426455E+03
 [Angstrom] -> [Bohr] = [a.u.]                              1.88972613288564E+00
 [a.u.] = [Bohr] -> [Angstrom]                              5.29177208590000E-01
 [a.u.] -> [s]                                              2.41888432650478E-17
 [a.u.] -> [fs]                                             2.41888432650478E-02
 [a.u.] -> [J]                                              4.35974393937059E-18
 [a.u.] -> [N]                                              8.23872205491840E-08
 [a.u.] -> [K]                                              3.15774647902944E+05
 [a.u.] -> [kJ/mol]                                         2.62549961709828E+03
 [a.u.] -> [kcal/mol]                                       6.27509468713739E+02
 [a.u.] -> [Pa]                                             2.94210107994716E+13
 [a.u.] -> [bar]                                            2.94210107994716E+08
 [a.u.] -> [atm]                                            2.90362800883016E+08
 [a.u.] -> [eV]                                             2.72113838565563E+01
 [a.u.] -> [Hz]                                             6.57968392072181E+15
 [a.u.] -> [1/cm] (wave numbers)                            2.19474631370540E+05
 [a.u./Bohr**2] -> [1/cm]                                   5.14048714338585E+03
 

 CELL_TOP| Volume [angstrom^3]:                                     27000.000000
 CELL_TOP| Vector a [angstrom    30.000     0.000     0.000   |a| =    30.000000
 CELL_TOP| Vector b [angstrom     0.000    30.000     0.000   |b| =    30.000000
 CELL_TOP| Vector c [angstrom     0.000     0.000    30.000   |c| =    30.000000
 CELL_TOP| Angle (b,c), alpha [degree]:                                90.000000
 CELL_TOP| Angle (a,c), beta  [degree]:                                90.000000
 CELL_TOP| Angle (a,b), gamma [degree]:                                90.000000
 CELL_TOP| Numerically orthorhombic:                                         YES
 CELL_TOP| Periodicity                                                      NONE

 GENERATE|  Preliminary Number of Bonds generated:                             0
 GENERATE|  Achieved consistency in connectivity generation.

 CELL| Volume [angstrom^3]:                                         27000.000000
 CELL| Vector a [angstrom]:      30.000     0.000     0.000   |a| =    30.000000
 CELL| Vector b [angstrom]:       0.000    30.000     0.000   |b| =    30.000000
 CELL| Vector c [angstrom]:       0.000     0.000    30.000   |c| =    30.000000
 CELL| Angle (b,c), alpha [degree]:                                    90.000000
 CELL| Angle (a,c), beta  [degree]:                                    90.000000
 CELL| Angle (a,b), gamma [degree]:                                    90.000000
 CELL| Numerically orthorhombic:                                             YES
 CELL| Periodicity                                                          NONE

 CELL_REF| Volume [angstrom^3]:                                     27000.000000
 CELL_REF| Vector a [angstrom    30.000     0.000     0.000   |a| =    30.000000
 CELL_REF| Vector b [angstrom     0.000    30.000     0.000   |b| =    30.000000
 CELL_REF| Vector c [angstrom     0.000     0.000    30.000   |c| =    30.000000
 CELL_REF| Angle (b,c), alpha [degree]:                                90.000000
 CELL_REF| Angle (a,c), beta  [degree]:                                90.000000
 CELL_REF| Angle (a,b), gamma [degree]:                                90.000000
 CELL_REF| Numerically orthorhombic:                                         YES
 CELL_REF| Periodicity                                                      NONE

 *******************************************************************************
 *******************************************************************************
 **                                                                           **
 **     #####                         ##              ##                      **
 **    ##   ##            ##          ##              ##                      **
 **   ##     ##                       ##            ######                    **
 **   ##     ##  ##   ##  ##   #####  ##  ##   ####   ##    #####    #####    **
 **   ##     ##  ##   ##  ##  ##      ## ##   ##      ##   ##   ##  ##   ##   **
 **   ##  ## ##  ##   ##  ##  ##      ####     ###    ##   ######   ######    **
 **    ##  ###   ##   ##  ##  ##      ## ##      ##   ##   ##       ##        **
 **     #######   #####   ##   #####  ##  ##  ####    ##    #####   ##        **
 **           ##                                                    ##        **
 **                                                                           **
 **                                                ... make the atoms dance   **
 **                                                                           **
 **            Copyright (C) by CP2K developers group (2000-2025)             **
 **                      J. Chem. Phys. 152, 194103 (2020)                    **
 **                                                                           **
 *******************************************************************************

 DFT| Spin restricted Kohn-Sham (RKS) calculation                            RKS
 DFT| Multiplicity                                                             1
 DFT| Number of spin states                                                    1
 DFT| Charge                                                                   0
 DFT| Self-interaction correction (SIC)                                       NO
 DFT| Cutoffs: density                                              1.000000E-10
 DFT|          gradient                                             1.000000E-10
 DFT|          tau                                                  1.000000E-10
 DFT|          cutoff_smoothing_range                               0.000000E+00
 DFT| XC density smoothing                                                  NONE
 DFT| XC derivatives                                                          PW

 FUNCTIONAL| PBE:
 FUNCTIONAL| J.P.Perdew, K.Burke, M.Ernzerhof, Phys. Rev. Letter, vol. 77, n 18,
 FUNCTIONAL|  pp. 3865-3868, (1996)sx=0.750sc=1.000{spin unpolarized}           


 QS| Method:                                                                GAPW
 QS| Density plane wave grid type                        NON-SPHERICAL FULLSPACE
 QS| Number of grid levels:                                                    4
 QS| Density cutoff [a.u.]:                                                250.0
 QS| Multi grid cutoff [a.u.]: 1) grid level                               250.0
 QS|                           2) grid level                                83.3
 QS|                           3) grid level                                27.8
 QS|                           4) grid level                                 9.3
 QS| Grid level progression factor:                                          3.0
 QS| Relative density cutoff [a.u.]:                                        50.0
 QS| Interaction thresholds: eps_pgf_orb:                                1.0E-12
 QS|                         eps_filter_matrix:                          0.0E+00
 QS|                         eps_core_charge:                            1.0E-14
 QS|                         eps_rho_gspace:                             1.0E-12
 QS|                         eps_rho_rspace:                             1.0E-12
 QS|                         eps_gvg_rspace:                             1.0E-06
 QS|                         eps_ppl:                                    1.0E-02
 QS|                         eps_ppnl:                                   1.0E-08
 QS| GAPW|      One center basis from orbital basis primitives
 QS| GAPW|                   eps_fit:                                    1.0E-04
 QS| GAPW|                   eps_iso:                                    1.0E-12
 QS| GAPW|                   eps_svd:                                    1.0E-08
 QS| GAPW|                   eps_cpc:                                    1.0E-12
 QS| GAPW|   atom-r-grid: quadrature:                                     GC_LOG
 QS| GAPW|      atom-s-grid:  max l :                                          8
 QS| GAPW|      max_l_rho0 :                                                   2


 ATOMIC KIND INFORMATION

  1. Atomic kind: H                                     Number of atoms:       2

     Orbital Basis Set                                               aug-cc-pV5Z

       Number of orbital shell sets:                                          10
       Number of orbital shells:                                              20
       Number of primitive Cartesian functions:                               23
       Number of Cartesian basis functions:                                  105
       Number of spherical basis functions:                                   80
       Norm type:                                                              2

       Normalised Cartesian orbitals:

                        Set   Shell   Orbital            Exponent    Coefficient

                          1       1    1s                0.020700       0.038894

                          2       1    1s              402.000000       0.000000
                                                        60.240000       0.000000
                                                        13.730000       0.000000
                                                         3.905000       0.000000
                                                         1.283000       0.859172
                                                         0.465500       0.000000
                                                         0.181100       0.000000
                                                         0.072790       0.000000

                          2       2    2s              402.000000       0.000000
                                                        60.240000       0.000000
                                                        13.730000       0.000000
                                                         3.905000       0.000000
                                                         1.283000       0.000000
                                                         0.465500       0.401652
                                                         0.181100       0.000000
                                                         0.072790       0.000000

                          2       3    3s              402.000000       0.017852
                                                        60.240000       0.033364
                                                        13.730000       0.056940
                                                         3.905000       0.088850
                                                         1.283000       0.122259
                                                         0.465500       0.132938
                                                         0.181100       0.086318
                                                         0.072790       0.017622

                          2       4    4s              402.000000       0.000000
                                                        60.240000       0.000000
                                                        13.730000       0.000000
                                                         3.905000       0.000000
                                                         1.283000       0.000000
                                                         0.465500       0.000000
                                                         0.181100       0.197856
                                                         0.072790       0.000000

                          2       5    5s              402.000000       0.000000
                                                        60.240000       0.000000
                                                        13.730000       0.000000
                                                         3.905000       0.000000
                                                         1.283000       0.000000
                                                         0.465500       0.000000
                                                         0.181100       0.000000
                                                         0.072790       0.099877

                          3       1    1px               0.074400       0.055387
                          3       1    1py               0.074400       0.055387
                          3       1    1pz               0.074400       0.055387

                          4       1    1dx2              0.156000       0.063735
                          4       1    1dxy              0.156000       0.110392
                          4       1    1dxz              0.156000       0.110392
                          4       1    1dy2              0.156000       0.063735
                          4       1    1dyz              0.156000       0.110392
                          4       1    1dz2              0.156000       0.063735

                          5       1    1px               4.516000       9.383881
                                                         1.712000       0.000000
                                                         0.649000       0.000000
                                                         0.246000       0.000000
                          5       1    1py               4.516000       9.383881
                                                         1.712000       0.000000
                                                         0.649000       0.000000
                                                         0.246000       0.000000
                          5       1    1pz               4.516000       9.383881
                                                         1.712000       0.000000
                                                         0.649000       0.000000
                                                         0.246000       0.000000

                          5       2    2px               4.516000       0.000000
                                                         1.712000       2.791385
                                                         0.649000       0.000000
                                                         0.246000       0.000000
                          5       2    2py               4.516000       0.000000
                                                         1.712000       2.791385
                                                         0.649000       0.000000
                                                         0.246000       0.000000
                          5       2    2pz               4.516000       0.000000
                                                         1.712000       2.791385
                                                         0.649000       0.000000
                                                         0.246000       0.000000

                          5       3    3px               4.516000       0.000000
                                                         1.712000       0.000000
                                                         0.649000       0.830321
                                                         0.246000       0.000000
                          5       3    3py               4.516000       0.000000
                                                         1.712000       0.000000
                                                         0.649000       0.830321
                                                         0.246000       0.000000
                          5       3    3pz               4.516000       0.000000
                                                         1.712000       0.000000
                                                         0.649000       0.830321
                                                         0.246000       0.000000

                          5       4    4px               4.516000       0.000000
                                                         1.712000       0.000000
                                                         0.649000       0.000000
                                                         0.246000       0.246950
                          5       4    4py               4.516000       0.000000
                                                         1.712000       0.000000
                                                         0.649000       0.000000
                                                         0.246000       0.246950
                          5       4    4pz               4.516000       0.000000
                                                         1.712000       0.000000
                                                         0.649000       0.000000
                                                         0.246000       0.246950

                          6       1    1fx3              0.274000       0.079964
                          6       1    1fx2y             0.274000       0.178804
                          6       1    1fx2z             0.274000       0.178804
                          6       1    1fxy2             0.274000       0.178804
                          6       1    1fxyz             0.274000       0.309698
                          6       1    1fxz2             0.274000       0.178804
                          6       1    1fy3              0.274000       0.079964
                          6       1    1fy2z             0.274000       0.178804
                          6       1    1fyz2             0.274000       0.178804
                          6       1    1fz3              0.274000       0.079964

                          7       1    1dx2              2.950000      10.929442
                                                         1.206000       0.000000
                                                         0.493000       0.000000
                          7       1    1dxy              2.950000      18.930349
                                                         1.206000       0.000000
                                                         0.493000       0.000000
                          7       1    1dxz              2.950000      18.930349
                                                         1.206000       0.000000
                                                         0.493000       0.000000
                          7       1    1dy2              2.950000      10.929442
                                                         1.206000       0.000000
                                                         0.493000       0.000000
                          7       1    1dyz              2.950000      18.930349
                                                         1.206000       0.000000
                                                         0.493000       0.000000
                          7       1    1dz2              2.950000      10.929442
                                                         1.206000       0.000000
                                                         0.493000       0.000000

                          7       2    2dx2              2.950000       0.000000
                                                         1.206000       2.284374
                                                         0.493000       0.000000
                          7       2    2dxy              2.950000       0.000000
                                                         1.206000       3.956652
                                                         0.493000       0.000000
                          7       2    2dxz              2.950000       0.000000
                                                         1.206000       3.956652
                                                         0.493000       0.000000
                          7       2    2dy2              2.950000       0.000000
                                                         1.206000       2.284374
                                                         0.493000       0.000000
                          7       2    2dyz              2.950000       0.000000
                                                         1.206000       3.956652
                                                         0.493000       0.000000
                          7       2    2dz2              2.950000       0.000000
                                                         1.206000       2.284374
                                                         0.493000       0.000000

                          7       3    3dx2              2.950000       0.000000
                                                         1.206000       0.000000
                                                         0.493000       0.477410
                          7       3    3dxy              2.950000       0.000000
                                                         1.206000       0.000000
                                                         0.493000       0.826898
                          7       3    3dxz              2.950000       0.000000
                                                         1.206000       0.000000
                                                         0.493000       0.826898
                          7       3    3dy2              2.950000       0.000000
                                                         1.206000       0.000000
                                                         0.493000       0.477410
                          7       3    3dyz              2.950000       0.000000
                                                         1.206000       0.000000
                                                         0.493000       0.826898
                          7       3    3dz2              2.950000       0.000000
                                                         1.206000       0.000000
                                                         0.493000       0.477410

                          8       1    1gx4              0.543000       0.207556
                          8       1    1gx3y             0.543000       0.549141
                          8       1    1gx3z             0.543000       0.549141
                          8       1    1gx2y2            0.543000       0.708938
                          8       1    1gx2yz            0.543000       1.227917
                          8       1    1gx2z2            0.543000       0.708938
                          8       1    1gxy3             0.543000       0.549141
                          8       1    1gxy2z            0.543000       1.227917
                          8       1    1gxyz2            0.543000       1.227917
                          8       1    1gxz3             0.543000       0.549141
                          8       1    1gy4              0.543000       0.207556
                          8       1    1gy3z             0.543000       0.549141
                          8       1    1gy2z2            0.543000       0.708938
                          8       1    1gyz3             0.543000       0.549141
                          8       1    1gz4              0.543000       0.207556

                          9       1    1fx3              2.506000      11.632200
                                                         0.875000       0.000000
                          9       1    1fx2y             2.506000      26.010389
                                                         0.875000       0.000000
                          9       1    1fx2z             2.506000      26.010389
                                                         0.875000       0.000000
                          9       1    1fxy2             2.506000      26.010389
                                                         0.875000       0.000000
                          9       1    1fxyz             2.506000      45.051316
                                                         0.875000       0.000000
                          9       1    1fxz2             2.506000      26.010389
                                                         0.875000       0.000000
                          9       1    1fy3              2.506000      11.632200
                                                         0.875000       0.000000
                          9       1    1fy2z             2.506000      26.010389
                                                         0.875000       0.000000
                          9       1    1fyz2             2.506000      26.010389
                                                         0.875000       0.000000
                          9       1    1fz3              2.506000      11.632200
                                                         0.875000       0.000000

                          9       2    2fx3              2.506000       0.000000
                                                         0.875000       1.090116
                          9       2    2fx2y             2.506000       0.000000
                                                         0.875000       2.437573
                          9       2    2fx2z             2.506000       0.000000
                                                         0.875000       2.437573
                          9       2    2fxy2             2.506000       0.000000
                                                         0.875000       2.437573
                          9       2    2fxyz             2.506000       0.000000
                                                         0.875000       4.222000
                          9       2    2fxz2             2.506000       0.000000
                                                         0.875000       2.437573
                          9       2    2fy3              2.506000       0.000000
                                                         0.875000       1.090116
                          9       2    2fy2z             2.506000       0.000000
                                                         0.875000       2.437573
                          9       2    2fyz2             2.506000       0.000000
                                                         0.875000       2.437573
                          9       2    2fz3              2.506000       0.000000
                                                         0.875000       1.090116

                         10       1    1gx4              2.358000      11.774186
                         10       1    1gx3y             2.358000      31.151567
                         10       1    1gx3z             2.358000      31.151567
                         10       1    1gx2y2            2.358000      40.216500
                         10       1    1gx2yz            2.358000      69.657021
                         10       1    1gx2z2            2.358000      40.216500
                         10       1    1gxy3             2.358000      31.151567
                         10       1    1gxy2z            2.358000      69.657021
                         10       1    1gxyz2            2.358000      69.657021
                         10       1    1gxz3             2.358000      31.151567
                         10       1    1gy4              2.358000      11.774186
                         10       1    1gy3z             2.358000      31.151567
                         10       1    1gy2z2            2.358000      40.216500
                         10       1    1gyz3             2.358000      31.151567
                         10       1    1gz4              2.358000      11.774186

     RI Auxiliary Basis Set                                    aug-cc-pV5Z-OPTRI

       Number of orbital shell sets:                                          17
       Number of orbital shells:                                              17
       Number of primitive Cartesian functions:                               17
       Number of Cartesian basis functions:                                  115
       Number of spherical basis functions:                                   81
       Norm type:                                                              2

       Normalised Cartesian orbitals:

                        Set   Shell   Orbital            Exponent    Coefficient

                          1       1    1s                0.306678       0.293712

                          2       1    1fx3              0.582788       0.436871
                          2       1    1fx2y             0.582788       0.976873
                          2       1    1fx2z             0.582788       0.976873
                          2       1    1fxy2             0.582788       0.976873
                          2       1    1fxyz             0.582788       1.691994
                          2       1    1fxz2             0.582788       0.976873
                          2       1    1fy3              0.582788       0.436871
                          2       1    1fy2z             0.582788       0.976873
                          2       1    1fyz2             0.582788       0.976873
                          2       1    1fz3              0.582788       0.436871

                          3       1    1dx2              0.740674       0.973323
                          3       1    1dxy              0.740674       1.685844
                          3       1    1dxz              0.740674       1.685844
                          3       1    1dy2              0.740674       0.973323
                          3       1    1dyz              0.740674       1.685844
                          3       1    1dz2              0.740674       0.973323

                          4       1    1s                0.854346       0.633338

                          5       1    1px               0.977704       1.385796
                          5       1    1py               0.977704       1.385796
                          5       1    1pz               0.977704       1.385796

                          6       1    1gx4              1.260673       2.104225
                          6       1    1gx3y             1.260673       5.567256
                          6       1    1gx3z             1.260673       5.567256
                          6       1    1gx2y2            1.260673       7.187297
                          6       1    1gx2yz            1.260673      12.448763
                          6       1    1gx2z2            1.260673       7.187297
                          6       1    1gxy3             1.260673       5.567256
                          6       1    1gxy2z            1.260673      12.448763
                          6       1    1gxyz2            1.260673      12.448763
                          6       1    1gxz3             1.260673       5.567256
                          6       1    1gy4              1.260673       2.104225
                          6       1    1gy3z             1.260673       5.567256
                          6       1    1gy2z2            1.260673       7.187297
                          6       1    1gyz3             1.260673       5.567256
                          6       1    1gz4              1.260673       2.104225

                          7       1    1fx3              1.313322       2.718252
                          7       1    1fx2y             1.313322       6.078196
                          7       1    1fx2z             1.313322       6.078196
                          7       1    1fxy2             1.313322       6.078196
                          7       1    1fxyz             1.313322      10.527744
                          7       1    1fxz2             1.313322       6.078196
                          7       1    1fy3              1.313322       2.718252
                          7       1    1fy2z             1.313322       6.078196
                          7       1    1fyz2             1.313322       6.078196
                          7       1    1fz3              1.313322       2.718252

                          8       1    1dx2              1.868623       4.915553
                          8       1    1dxy              1.868623       8.513988
                          8       1    1dxz              1.868623       8.513988
                          8       1    1dy2              1.868623       4.915553
                          8       1    1dyz              1.868623       8.513988
                          8       1    1dz2              1.868623       4.915553

                          9       1    1s                2.242991       1.306263

                         10       1    1hx5              2.510965      14.785170
                         10       1    1hx4y             2.510965      44.355509
                         10       1    1hx4z             2.510965      44.355509
                         10       1    1hx3y2            2.510965      67.754159
                         10       1    1hx3yz            2.510965     117.353645
                         10       1    1hx3z2            2.510965      67.754159
                         10       1    1hx2y3            2.510965      67.754159
                         10       1    1hx2y2z           2.510965     151.502904
                         10       1    1hx2yz2           2.510965     151.502904
                         10       1    1hx2z3            2.510965      67.754159
                         10       1    1hxy4             2.510965      44.355509
                         10       1    1hxy3z            2.510965     117.353645
                         10       1    1hxy2z2           2.510965     151.502904
                         10       1    1hxyz3            2.510965     117.353645
                         10       1    1hxz4             2.510965      44.355509
                         10       1    1hy5              2.510965      14.785170
                         10       1    1hy4z             2.510965      44.355509
                         10       1    1hy3z2            2.510965      67.754159
                         10       1    1hy2z3            2.510965      67.754159
                         10       1    1hyz4             2.510965      44.355509
                         10       1    1hz5              2.510965      14.785170

                         11       1    1px               2.624145       4.760744
                         11       1    1py               2.624145       4.760744
                         11       1    1pz               2.624145       4.760744

                         12       1    1gx4              3.525409      35.584558
                         12       1    1gx3y             3.525409      94.147891
                         12       1    1gx3z             3.525409      94.147891
                         12       1    1gx2y2            3.525409     121.544404
                         12       1    1gx2yz            3.525409     210.521084
                         12       1    1gx2z2            3.525409     121.544404
                         12       1    1gxy3             3.525409      94.147891
                         12       1    1gxy2z            3.525409     210.521084
                         12       1    1gxyz2            3.525409     210.521084
                         12       1    1gxz3             3.525409      94.147891
                         12       1    1gy4              3.525409      35.584558
                         12       1    1gy3z             3.525409      94.147891
                         12       1    1gy2z2            3.525409     121.544404
                         12       1    1gyz3             3.525409      94.147891
                         12       1    1gz4              3.525409      35.584558

                         13       1    1fx3              3.758818      28.961421
                         13       1    1fx2y             3.758818      64.759707
                         13       1    1fx2z             3.758818      64.759707
                         13       1    1fxy2             3.758818      64.759707
                         13       1    1fxyz             3.758818     112.167102
                         13       1    1fxz2             3.758818      64.759707
                         13       1    1fy3              3.758818      28.961421
                         13       1    1fy2z             3.758818      64.759707
                         13       1    1fyz2             3.758818      64.759707
                         13       1    1fz3              3.758818      28.961421

                         14       1    1dx2              4.580832      23.608158
                         14       1    1dxy              4.580832      40.890528
                         14       1    1dxz              4.580832      40.890528
                         14       1    1dy2              4.580832      23.608158
                         14       1    1dyz              4.580832      40.890528
                         14       1    1dz2              4.580832      23.608158

                         15       1    1px               6.794656      15.636856
                         15       1    1py               6.794656      15.636856
                         15       1    1pz               6.794656      15.636856

                         16       1    1s                7.257089       3.151243

                         17       1    1px              22.632735      70.365761
                         17       1    1py              22.632735      70.365761
                         17       1    1pz              22.632735      70.365761

       Atomic covalent radius [Angstrom]:                                  0.320

       Atomic van der Waals radius [Angstrom]:                             1.090

     The atoms of this atomic kind are PAW atoms (GAPW):
       Hard Gaussian function radius:                                      1.200
       Rho0 radius:                                                        1.200
       Maximum GTO radius used for PAW projector construction:            24.566

     GAPW Soft Basis Set                                        aug-cc-pV5Z_soft

       Number of orbital shell sets:                                          10
       Number of orbital shells:                                              20
       Number of primitive Cartesian functions:                               20
       Number of Cartesian basis functions:                                  105
       Number of spherical basis functions:                                   80
       Norm type:                                                              2

       Normalised Cartesian orbitals:

                        Set   Shell   Orbital            Exponent    Coefficient

                          1       1    1s                0.020700       0.038894

                          2       1    1s                3.905000       0.000000
                                                         1.283000       0.859172
                                                         0.465500       0.000000
                                                         0.181100       0.000000
                                                         0.072790       0.000000

                          2       2    2s                3.905000       0.000000
                                                         1.283000       0.000000
                                                         0.465500       0.401652
                                                         0.181100       0.000000
                                                         0.072790       0.000000

                          2       3    3s                3.905000       0.088850
                                                         1.283000       0.122259
                                                         0.465500       0.132938
                                                         0.181100       0.086318
                                                         0.072790       0.017622

                          2       4    4s                3.905000       0.000000
                                                         1.283000       0.000000
                                                         0.465500       0.000000
                                                         0.181100       0.197856
                                                         0.072790       0.000000

                          2       5    5s                3.905000       0.000000
                                                         1.283000       0.000000
                                                         0.465500       0.000000
                                                         0.181100       0.000000
                                                         0.072790       0.099877

                          3       1    1px               0.074400       0.055387
                          3       1    1py               0.074400       0.055387
                          3       1    1pz               0.074400       0.055387

                          4       1    1dx2              0.156000       0.063735
                          4       1    1dxy              0.156000       0.110392
                          4       1    1dxz              0.156000       0.110392
                          4       1    1dy2              0.156000       0.063735
                          4       1    1dyz              0.156000       0.110392
                          4       1    1dz2              0.156000       0.063735

                          5       1    1px               4.516000       9.383881
                                                         1.712000       0.000000
                                                         0.649000       0.000000
                                                         0.246000       0.000000
                          5       1    1py               4.516000       9.383881
                                                         1.712000       0.000000
                                                         0.649000       0.000000
                                                         0.246000       0.000000
                          5       1    1pz               4.516000       9.383881
                                                         1.712000       0.000000
                                                         0.649000       0.000000
                                                         0.246000       0.000000

                          5       2    2px               4.516000       0.000000
                                                         1.712000       2.791385
                                                         0.649000       0.000000
                                                         0.246000       0.000000
                          5       2    2py               4.516000       0.000000
                                                         1.712000       2.791385
                                                         0.649000       0.000000
                                                         0.246000       0.000000
                          5       2    2pz               4.516000       0.000000
                                                         1.712000       2.791385
                                                         0.649000       0.000000
                                                         0.246000       0.000000

                          5       3    3px               4.516000       0.000000
                                                         1.712000       0.000000
                                                         0.649000       0.830321
                                                         0.246000       0.000000
                          5       3    3py               4.516000       0.000000
                                                         1.712000       0.000000
                                                         0.649000       0.830321
                                                         0.246000       0.000000
                          5       3    3pz               4.516000       0.000000
                                                         1.712000       0.000000
                                                         0.649000       0.830321
                                                         0.246000       0.000000

                          5       4    4px               4.516000       0.000000
                                                         1.712000       0.000000
                                                         0.649000       0.000000
                                                         0.246000       0.246950
                          5       4    4py               4.516000       0.000000
                                                         1.712000       0.000000
                                                         0.649000       0.000000
                                                         0.246000       0.246950
                          5       4    4pz               4.516000       0.000000
                                                         1.712000       0.000000
                                                         0.649000       0.000000
                                                         0.246000       0.246950

                          6       1    1fx3              0.274000       0.079964
                          6       1    1fx2y             0.274000       0.178804
                          6       1    1fx2z             0.274000       0.178804
                          6       1    1fxy2             0.274000       0.178804
                          6       1    1fxyz             0.274000       0.309698
                          6       1    1fxz2             0.274000       0.178804
                          6       1    1fy3              0.274000       0.079964
                          6       1    1fy2z             0.274000       0.178804
                          6       1    1fyz2             0.274000       0.178804
                          6       1    1fz3              0.274000       0.079964

                          7       1    1dx2              2.950000      10.929442
                                                         1.206000       0.000000
                                                         0.493000       0.000000
                          7       1    1dxy              2.950000      18.930349
                                                         1.206000       0.000000
                                                         0.493000       0.000000
                          7       1    1dxz              2.950000      18.930349
                                                         1.206000       0.000000
                                                         0.493000       0.000000
                          7       1    1dy2              2.950000      10.929442
                                                         1.206000       0.000000
                                                         0.493000       0.000000
                          7       1    1dyz              2.950000      18.930349
                                                         1.206000       0.000000
                                                         0.493000       0.000000
                          7       1    1dz2              2.950000      10.929442
                                                         1.206000       0.000000
                                                         0.493000       0.000000

                          7       2    2dx2              2.950000       0.000000
                                                         1.206000       2.284374
                                                         0.493000       0.000000
                          7       2    2dxy              2.950000       0.000000
                                                         1.206000       3.956652
                                                         0.493000       0.000000
                          7       2    2dxz              2.950000       0.000000
                                                         1.206000       3.956652
                                                         0.493000       0.000000
                          7       2    2dy2              2.950000       0.000000
                                                         1.206000       2.284374
                                                         0.493000       0.000000
                          7       2    2dyz              2.950000       0.000000
                                                         1.206000       3.956652
                                                         0.493000       0.000000
                          7       2    2dz2              2.950000       0.000000
                                                         1.206000       2.284374
                                                         0.493000       0.000000

                          7       3    3dx2              2.950000       0.000000
                                                         1.206000       0.000000
                                                         0.493000       0.477410
                          7       3    3dxy              2.950000       0.000000
                                                         1.206000       0.000000
                                                         0.493000       0.826898
                          7       3    3dxz              2.950000       0.000000
                                                         1.206000       0.000000
                                                         0.493000       0.826898
                          7       3    3dy2              2.950000       0.000000
                                                         1.206000       0.000000
                                                         0.493000       0.477410
                          7       3    3dyz              2.950000       0.000000
                                                         1.206000       0.000000
                                                         0.493000       0.826898
                          7       3    3dz2              2.950000       0.000000
                                                         1.206000       0.000000
                                                         0.493000       0.477410

                          8       1    1gx4              0.543000       0.207556
                          8       1    1gx3y             0.543000       0.549141
                          8       1    1gx3z             0.543000       0.549141
                          8       1    1gx2y2            0.543000       0.708938
                          8       1    1gx2yz            0.543000       1.227917
                          8       1    1gx2z2            0.543000       0.708938
                          8       1    1gxy3             0.543000       0.549141
                          8       1    1gxy2z            0.543000       1.227917
                          8       1    1gxyz2            0.543000       1.227917
                          8       1    1gxz3             0.543000       0.549141
                          8       1    1gy4              0.543000       0.207556
                          8       1    1gy3z             0.543000       0.549141
                          8       1    1gy2z2            0.543000       0.708938
                          8       1    1gyz3             0.543000       0.549141
                          8       1    1gz4              0.543000       0.207556

                          9       1    1fx3              2.506000      11.632200
                                                         0.875000       0.000000
                          9       1    1fx2y             2.506000      26.010389
                                                         0.875000       0.000000
                          9       1    1fx2z             2.506000      26.010389
                                                         0.875000       0.000000
                          9       1    1fxy2             2.506000      26.010389
                                                         0.875000       0.000000
                          9       1    1fxyz             2.506000      45.051316
                                                         0.875000       0.000000
                          9       1    1fxz2             2.506000      26.010389
                                                         0.875000       0.000000
                          9       1    1fy3              2.506000      11.632200
                                                         0.875000       0.000000
                          9       1    1fy2z             2.506000      26.010389
                                                         0.875000       0.000000
                          9       1    1fyz2             2.506000      26.010389
                                                         0.875000       0.000000
                          9       1    1fz3              2.506000      11.632200
                                                         0.875000       0.000000

                          9       2    2fx3              2.506000       0.000000
                                                         0.875000       1.090116
                          9       2    2fx2y             2.506000       0.000000
                                                         0.875000       2.437573
                          9       2    2fx2z             2.506000       0.000000
                                                         0.875000       2.437573
                          9       2    2fxy2             2.506000       0.000000
                                                         0.875000       2.437573
                          9       2    2fxyz             2.506000       0.000000
                                                         0.875000       4.222000
                          9       2    2fxz2             2.506000       0.000000
                                                         0.875000       2.437573
                          9       2    2fy3              2.506000       0.000000
                                                         0.875000       1.090116
                          9       2    2fy2z             2.506000       0.000000
                                                         0.875000       2.437573
                          9       2    2fyz2             2.506000       0.000000
                                                         0.875000       2.437573
                          9       2    2fz3              2.506000       0.000000
                                                         0.875000       1.090116

                         10       1    1gx4              2.358000      11.774186
                         10       1    1gx3y             2.358000      31.151567
                         10       1    1gx3z             2.358000      31.151567
                         10       1    1gx2y2            2.358000      40.216500
                         10       1    1gx2yz            2.358000      69.657021
                         10       1    1gx2z2            2.358000      40.216500
                         10       1    1gxy3             2.358000      31.151567
                         10       1    1gxy2z            2.358000      69.657021
                         10       1    1gxyz2            2.358000      69.657021
                         10       1    1gxz3             2.358000      31.151567
                         10       1    1gy4              2.358000      11.774186
                         10       1    1gy3z             2.358000      31.151567
                         10       1    1gy2z2            2.358000      40.216500
                         10       1    1gyz3             2.358000      31.151567
                         10       1    1gz4              2.358000      11.774186

     AE Potential information for                                            ALL

       Description:                                       All-electron potential
                                          Krack, Parrinello, PCCP 2, 2105 (2000)

       Gaussian exponent of the core charge distribution:              12.500000
       Electronic configuration (s p d ...):                           1   0   0


 MOLECULE KIND INFORMATION


 All atoms are their own molecule, skipping detailed information


 TOTAL NUMBERS AND MAXIMUM NUMBERS

  Total number of            - Atomic kinds:                                   1
                             - Atoms:                                          2
                             - Shell sets:                                    20
                             - Shells:                                        40
                             - Primitive Cartesian functions:                 46
                             - Cartesian basis functions:                    210
                             - Spherical basis functions:                    160

  Maximum angular momentum of the orbital basis functions:                     4


 MODULE QUICKSTEP: ATOMIC COORDINATES IN ANGSTROM

   Atom Kind Element         X             Y             Z       Z(eff)     Mass
      1    1 H     1     15.370946     15.000000     15.000000   1.0000   1.0079
      2    1 H     1     14.629054     15.000000     15.000000   1.0000   1.0079



 SCF PARAMETERS         Density guess:                                    ATOMIC
                        --------------------------------------------------------
                        max_scf:                                             500
                        max_scf_history:                                       0
                        max_diis:                                              4
                        --------------------------------------------------------
                        eps_scf:                                        1.00E-06
                        eps_scf_history:                                0.00E+00
                        eps_diis:                                       1.00E-01
                        eps_eigval:                                     1.00E-05
                        --------------------------------------------------------
                        level_shift [a.u.]:                             0.000000
                        added MOs                                       159    0
                        --------------------------------------------------------
                        Mixing method:                            BROYDEN_MIXING
                                                charge density mixing in g-space
                        --------------------------------------------------------
                        No outer SCF

 PW_GRID| Information for grid number                                          1
 PW_GRID| Grid distributed over                                    24 processors
 PW_GRID| Real space group dimensions                                    24    1
 PW_GRID| the grid is blocked:                                                NO
 PW_GRID| Cutoff [a.u.]                                                    250.0
 PW_GRID| spherical cutoff:                                                   NO
 PW_GRID|   Bounds   1           -202     202                Points:         405
 PW_GRID|   Bounds   2           -202     202                Points:         405
 PW_GRID|   Bounds   3           -202     202                Points:         405
 PW_GRID| Volume element (a.u.^3)  0.2743E-02     Volume (a.u.^3)    182205.0337
 PW_GRID| Grid span                                                    FULLSPACE
 PW_GRID|   Distribution                         Average         Max         Min
 PW_GRID|   G-Vectors                          2767921.9     2768175     2767770
 PW_GRID|   G-Rays                                6834.4        6835        6834
 PW_GRID|   Real Space Points                  2767921.9     2788425     2624400

 PW_GRID| Information for grid number                                          2
 PW_GRID| Number of the reference grid                                         1
 PW_GRID| Grid distributed over                                    24 processors
 PW_GRID| Real space group dimensions                                    24    1
 PW_GRID| the grid is blocked:                                                NO
 PW_GRID| Cutoff [a.u.]                                                     83.3
 PW_GRID| spherical cutoff:                                                   NO
 PW_GRID|   Bounds   1           -120     119                Points:         240
 PW_GRID|   Bounds   2           -120     119                Points:         240
 PW_GRID|   Bounds   3           -120     119                Points:         240
 PW_GRID| Volume element (a.u.^3)  0.1318E-01     Volume (a.u.^3)    182205.0337
 PW_GRID| Grid span                                                    FULLSPACE
 PW_GRID|   Distribution                         Average         Max         Min
 PW_GRID|   G-Vectors                           576000.0      576240      575760
 PW_GRID|   G-Rays                                2400.0        2401        2399
 PW_GRID|   Real Space Points                   576000.0      576000      576000

 PW_GRID| Information for grid number                                          3
 PW_GRID| Number of the reference grid                                         1
 PW_GRID| Grid distributed over                                    24 processors
 PW_GRID| Real space group dimensions                                    24    1
 PW_GRID| the grid is blocked:                                                NO
 PW_GRID| Cutoff [a.u.]                                                     27.8
 PW_GRID| spherical cutoff:                                                   NO
 PW_GRID|   Bounds   1            -67      67                Points:         135
 PW_GRID|   Bounds   2            -67      67                Points:         135
 PW_GRID|   Bounds   3            -67      67                Points:         135
 PW_GRID| Volume element (a.u.^3)  0.7406E-01     Volume (a.u.^3)    182205.0337
 PW_GRID| Grid span                                                    FULLSPACE
 PW_GRID|   Distribution                         Average         Max         Min
 PW_GRID|   G-Vectors                           102515.6      102735      102330
 PW_GRID|   G-Rays                                 759.4         761         758
 PW_GRID|   Real Space Points                   102515.6      109350       91125

 PW_GRID| Information for grid number                                          4
 PW_GRID| Number of the reference grid                                         1
 PW_GRID| Grid distributed over                                    24 processors
 PW_GRID| Real space group dimensions                                    24    1
 PW_GRID| the grid is blocked:                                                NO
 PW_GRID| Cutoff [a.u.]                                                      9.3
 PW_GRID| spherical cutoff:                                                   NO
 PW_GRID|   Bounds   1            -40      39                Points:          80
 PW_GRID|   Bounds   2            -40      39                Points:          80
 PW_GRID|   Bounds   3            -40      39                Points:          80
 PW_GRID| Volume element (a.u.^3)  0.3559         Volume (a.u.^3)    182205.0337
 PW_GRID| Grid span                                                    FULLSPACE
 PW_GRID|   Distribution                         Average         Max         Min
 PW_GRID|   G-Vectors                            21333.3       21360       21280
 PW_GRID|   G-Rays                                 266.7         267         266
 PW_GRID|   Real Space Points                    21333.3       25600       19200

 POISSON| Solver                                                         WAVELET
 POISSON| Wavelet| Scaling function                                           40
 POISSON| Periodicity                                                       NONE

 RS_GRID| Information for grid number                                          1
 RS_GRID|   Bounds   1           -202     202                Points:         405
 RS_GRID|   Bounds   2           -202     202                Points:         405
 RS_GRID|   Bounds   3           -202     202                Points:         405
 RS_GRID| Real space distribution over                                  4 groups
 RS_GRID| Real space distribution along direction                              2
 RS_GRID| Border size                                                         36
 RS_GRID| Real space distribution over                                  6 groups
 RS_GRID| Real space distribution along direction                              3
 RS_GRID| Border size                                                         36
 RS_GRID|   Distribution                         Average         Max         Min
 RS_GRID|   Planes                                 173.2         174         173
 RS_GRID|   Distribution                         Average         Max         Min
 RS_GRID|   Planes                                 139.5         140         139

 RS_GRID| Information for grid number                                          2
 RS_GRID|   Bounds   1           -120     119                Points:         240
 RS_GRID|   Bounds   2           -120     119                Points:         240
 RS_GRID|   Bounds   3           -120     119                Points:         240
 RS_GRID| Real space distribution over                                  4 groups
 RS_GRID| Real space distribution along direction                              2
 RS_GRID| Border size                                                         37
 RS_GRID| Real space distribution over                                  6 groups
 RS_GRID| Real space distribution along direction                              3
 RS_GRID| Border size                                                         37
 RS_GRID|   Distribution                         Average         Max         Min
 RS_GRID|   Planes                                 134.0         134         134
 RS_GRID|   Distribution                         Average         Max         Min
 RS_GRID|   Planes                                 114.0         114         114

 RS_GRID| Information for grid number                                          3
 RS_GRID|   Bounds   1            -67      67                Points:         135
 RS_GRID|   Bounds   2            -67      67                Points:         135
 RS_GRID|   Bounds   3            -67      67                Points:         135
 RS_GRID| Real space fully replicated
 RS_GRID| Group size                                                           1

 RS_GRID| Information for grid number                                          4
 RS_GRID|   Bounds   1            -40      39                Points:          80
 RS_GRID|   Bounds   2            -40      39                Points:          80
 RS_GRID|   Bounds   3            -40      39                Points:          80
 RS_GRID| Real space fully replicated
 RS_GRID| Group size                                                           1

  HFX_INFO| Replica ID:                                                        1
  HFX_INFO| FRACTION:                                               0.2500000000
  HFX_INFO| Interaction Potential:                                       COULOMB
  HFX_INFO| EPS_SCHWARZ:                                                 1.0E-10
  HFX_INFO| EPS_SCHWARZ_FORCES                                           1.0E-08
  HFX_INFO| EPS_STORAGE_SCALING:                                         1.0E+00
  HFX_INFO| NBINS:                                                            64
  HFX_INFO| BLOCK_SIZE:                                                        1
  HFX_INFO| Number of periodic shells considered:                           NONE
  HFX_INFO| Number of periodic cells considered:                            NONE

 
 RI-RPA| using GPW style
 

 OVERLAP MATRIX CONDITION NUMBER
 1-Norm Condition Number (Estimate)
   CN : |A|*|A^-1|:  1.167E+001 *  2.305E+005   = 2.689E+006  Log(1-CN):  6.4296
 1-Norm and 2-Norm Condition Numbers using Diagonalization
   CN : |A|*|A^-1|:  1.167E+001 *  2.305E+005   = 2.689E+006  Log(1-CN):  6.4296
   CN : max/min ev:  8.078E+000 /  5.661E-006   = 1.427E+006  Log(2-CN):  6.1544

 Number of electrons:                                                          2
 Number of occupied orbitals:                                                  1
 Number of molecular orbitals:                                               160

 Number of orbital functions:                                                160

 *** WARNING in qs_scf_initialization.F:1022 :: The numerical rank of the  ***
 *** overlap matrix is lower than the number of requested MOs! Reduce the  ***
 *** number of MOs to the number of available MOs. If necessary, request a ***
 *** lower number of MOs or increase EPS_DEFAULT or EPS_PGF_ORB.           ***

 Number of independent orbital functions:                                    159

 Extrapolation method: initial_guess

 Atomic guess: The first density matrix is obtained in terms of atomic orbitals
               and electronic configurations assigned to each atomic kind

 Guess for atomic kind: H

 Electronic structure
    Total number of core electrons                                          0.00
    Total number of valence electrons                                       1.00
    Total number of electrons                                               1.00
    Multiplicity                                                   not specified
    S      1.00


 *******************************************************************************
                  Iteration          Convergence                     Energy [au]
 *******************************************************************************
                          1        0.870243E-02                  -0.445422674463
                          2        0.110889E-02                  -0.445523263140
                          3        0.118657E-03                  -0.445525854302
                          4        0.532983E-06                  -0.445525882695

 Energy components [Hartree]           Total Energy ::           -0.445525882695
                                        Band Energy ::           -0.233289836501
                                     Kinetic Energy ::            0.424578936317
                                   Potential Energy ::           -0.870104819011
                                      Virial (-V/T) ::            2.049335811520
                                        Core Energy ::           -0.495925394927
                                          XC Energy ::           -0.232271865119
                                     Coulomb Energy ::            0.282671377352

 Orbital energies  State     L     Occupation   Energy[a.u.]          Energy[eV]

                       1     0          1.000      -0.233290           -6.348139


 Total Electron Density at R=0:                                         0.265461
 Re-scaling the density matrix to get the right number of electrons
                  # Electrons              Trace(P)               Scaling factor
                            2                 2.000                        1.000


 SCF WAVEFUNCTION OPTIMIZATION

  Step     Update method      Time    Convergence         Total energy    Change
  ------------------------------------------------------------------------------

  HFX_MEM_INFO| Est. max. program size before HFX [MiB]:                    2181
  HFX_MEM_INFO| Number of cart. primitive ERI's calculated:            816016909
  HFX_MEM_INFO| Number of sph. ERI's calculated:                       245760000
  HFX_MEM_INFO| Number of sph. ERI's stored in-core:                   245760000
  HFX_MEM_INFO| Number of sph. ERI's stored on disk:                           0
  HFX_MEM_INFO| Number of sph. ERI's calculated on the fly:                    0
  HFX_MEM_INFO| Total memory consumption ERI's RAM [MiB]:                    843
  HFX_MEM_INFO| Whereof max-vals [MiB]:                                        1
  HFX_MEM_INFO| Total compression factor ERI's RAM:                         2.23
  HFX_MEM_INFO| Total memory consumption ERI's disk [MiB]:                     0
  HFX_MEM_INFO| Total compression factor ERI's disk:                        0.00
  HFX_MEM_INFO| Size of density/Fock matrix [MiB]:                             0
  HFX_MEM_INFO| Size of buffers [MiB]:                                         1
  HFX_MEM_INFO| Est. max. program size after HFX  [MiB]:                    2769

     1 NoMix/Diag. 0.10E+00   29.6     1.54612092        -0.9449814010 -9.45E-01
     2 Broy./Diag. 0.10E+00    5.2     0.17150631        -0.7638502831  1.81E-01
     3 Broy./Diag. 0.10E+00    5.3     0.26035168        -0.3600850431  4.04E-01
     4 Broy./Diag. 0.10E+00    5.3     0.10188805        -0.4974811009 -1.37E-01
     5 Broy./Diag. 0.10E+00    5.4     0.06655679        -0.5905885601 -9.31E-02
     6 Broy./Diag. 0.10E+00    5.4     0.01495053        -0.6167467536 -2.62E-02
     7 Broy./Diag. 0.10E+00    5.4     0.12182460        -0.7955081829 -1.79E-01
     8 Broy./Diag. 0.10E+00    5.6     0.03181238        -0.8585666264 -6.31E-02
     9 Broy./Diag. 0.10E+00    5.6     0.02065670        -0.8940994179 -3.55E-02
    10 Broy./Diag. 0.10E+00    5.7     0.07167456        -1.0033160635 -1.09E-01
    11 Broy./Diag. 0.10E+00    5.7     0.07881175        -1.1276647135 -1.24E-01
    12 Broy./Diag. 0.10E+00    5.9     0.01218288        -1.1582322955 -3.06E-02
    13 Broy./Diag. 0.10E+00    5.9     0.01739711        -1.1341538801  2.41E-02
    14 Broy./Diag. 0.10E+00    5.8     0.01327429        -1.1469024604 -1.27E-02
    15 Broy./Diag. 0.10E+00    5.9     0.01111797        -1.1629738910 -1.61E-02
    16 Broy./Diag. 0.10E+00    5.8     0.00100636        -1.1654467216 -2.47E-03
    17 Broy./Diag. 0.10E+00    5.8     0.00444789        -1.1612167454  4.23E-03
    18 Broy./Diag. 0.10E+00    5.7     0.00385327        -1.1658307094 -4.61E-03
    19 Broy./Diag. 0.10E+00    5.7     0.00183589        -1.1675135362 -1.68E-03
    20 Broy./Diag. 0.10E+00    5.7     0.00478350        -1.1666653416  8.48E-04
    21 Broy./Diag. 0.10E+00    5.6     0.00216184        -1.1698432078 -3.18E-03
    22 Broy./Diag. 0.10E+00    5.7     0.00052997        -1.1697310754  1.12E-04
    23 Broy./Diag. 0.10E+00    5.7     0.00181100        -1.1680531731  1.68E-03
    24 Broy./Diag. 0.10E+00    5.6     0.00133262        -1.1683685677 -3.15E-04
    25 Broy./Diag. 0.10E+00    5.6     0.00088184        -1.1689634393 -5.95E-04
    26 Broy./Diag. 0.10E+00    5.7     0.00013972        -1.1689773529 -1.39E-05
    27 Broy./Diag. 0.10E+00    5.8     0.00018317        -1.1687629286  2.14E-04
    28 Broy./Diag. 0.10E+00    5.8     0.00033418        -1.1692483511 -4.85E-04
    29 Broy./Diag. 0.10E+00    5.9     0.00021305        -1.1691925639  5.58E-05
    30 Broy./Diag. 0.10E+00    5.9     0.00024835        -1.1691092795  8.33E-05
    31 Broy./Diag. 0.10E+00    5.9     0.00006931        -1.1691984441 -8.92E-05
    32 Broy./Diag. 0.10E+00    5.8     0.00031339        -1.1690012928  1.97E-04
    33 Broy./Diag. 0.10E+00    5.8     0.00007398        -1.1689671243  3.42E-05
    34 Broy./Diag. 0.10E+00    5.8     0.00012965        -1.1690803849 -1.13E-04
    35 Broy./Diag. 0.10E+00    5.7     0.00002948        -1.1690691692  1.12E-05
    36 Broy./Diag. 0.10E+00    5.7     0.00001573        -1.1690511801  1.80E-05
    37 Broy./Diag. 0.10E+00    5.8     0.00002754        -1.1690956886 -4.45E-05
    38 Broy./Diag. 0.10E+00    5.6     0.00002542        -1.1690746570  2.10E-05
    39 Broy./Diag. 0.10E+00    5.7     0.00001731        -1.1690868753 -1.22E-05
    40 Broy./Diag. 0.10E+00    5.7     0.00003067        -1.1690858593  1.02E-06
    41 Broy./Diag. 0.10E+00    5.9     0.00001926        -1.1690633798  2.25E-05
    42 Broy./Diag. 0.10E+00    6.0     0.00003406        -1.1690576272  5.75E-06
    43 Broy./Diag. 0.10E+00    5.9     0.00000663        -1.1690562498  1.38E-06
    44 Broy./Diag. 0.10E+00    6.0     0.00004343        -1.1690571571 -9.07E-07
    45 Broy./Diag. 0.10E+00    5.7     0.00002591        -1.1690567517  4.05E-07
    46 Broy./Diag. 0.10E+00    5.8     0.00002162        -1.1690583194 -1.57E-06
    47 Broy./Diag. 0.10E+00    5.9     0.00000304        -1.1690581816  1.38E-07
    48 Broy./Diag. 0.10E+00    5.8     0.00000441        -1.1690555803  2.60E-06
    49 Broy./Diag. 0.10E+00    5.8     0.00000225        -1.1690561144 -5.34E-07
    50 Broy./Diag. 0.10E+00    5.8     0.00000352        -1.1690552021  9.12E-07
    51 Broy./Diag. 0.10E+00    5.7     0.00001779        -1.1690530825  2.12E-06
    52 Broy./Diag. 0.10E+00    5.7     0.00000260        -1.1690536208 -5.38E-07
    53 Broy./Diag. 0.10E+00    5.6     0.00000540        -1.1690526704  9.50E-07
    54 Broy./Diag. 0.10E+00    5.8     0.00000163        -1.1690538802 -1.21E-06
    55 Broy./Diag. 0.10E+00    5.8     0.00000164        -1.1690536920  1.88E-07
    56 Broy./Diag. 0.10E+00    5.8     0.00000052        -1.1690532879  4.04E-07

  *** SCF run converged in    56 steps ***


  Electronic density on regular grids:         -1.9840664156        0.0159335844
  Core density on regular grids:                2.0000000000       -0.0000000000
  Hard and soft densities (Lebedev):           -8.1423882250       -8.1264545539
  Total Rho_soft + Rho1_hard - Rho1_soft       -2.0000000868
  Total charge density (r-space):              -0.0000000868
  Total Rho_soft + Rho0_soft (g-space):        -0.0000000931

  Overlap energy of the core charge distribution:               0.00000051136925
  Self energy of the core charge distribution:                 -2.82094791773878
  Core Hamiltonian energy:                                      0.97983811400000
  Hartree energy:                                               1.09245247274971
  Exchange-correlation energy:                                 -0.52060502699104
  Hartree-Fock Exchange energy:                                -0.16455645211342

  GAPW| Exc from hard and soft atomic rho1:                    -0.00885457547504
  GAPW| local Eh = 1 center integrals:                          0.27361958630886

  Total energy:                                                -1.16905328789047

 !-----------------------------------------------------------------------------!
                     Mulliken Population Analysis

 #  Atom  Element  Kind  Atomic population                           Net charge
       1     H        1          1.000000                             -0.000000
       2     H        1          1.000000                              0.000000
 # Total charge                              2.000000                 -0.000000

 !-----------------------------------------------------------------------------!

 !-----------------------------------------------------------------------------!
                           Hirshfeld Charges

  #Atom  Element  Kind  Ref Charge     Population                    Net charge
      1       H      1       1.000          0.933                         0.067
      2       H      1       1.000          0.933                         0.067

  Total Charge                                                            0.134
 !-----------------------------------------------------------------------------!


 RI-RPA section
 --------------

  Used number of processes per group:                                          1
  Maximum allowed memory usage per MPI process:                      1024.00 MiB
  Number of removed MOs:                                                       1
  Number of available MOs:                                                   159
  RI_INFO| Cholesky decomposition group size:                                  2
  RI_INFO| Number of groups for auxiliary basis functions                     24

  RI_INFO| RI metric:                                                    COULOMB
  RI_INFO| Number of auxiliary basis functions:                              162
  GENERAL_INFO| Number of basis functions:                                   159
  GENERAL_INFO| Number of occupied orbitals:                                   1
  GENERAL_INFO| Number of virtual orbitals:                                  158
  RI_INFO| Total memory for (ia|K) integrals:                           0.20 MiB
  RI_INFO| Total memory for G0W0-(nm|K) integrals:                     31.44 MiB
  RI_INFO| Total memory for (ij|K) integrals:                           0.00 MiB
  RI_INFO| Total memory for (ab|K) integrals:                          31.25 MiB
  RI_INFO| Group size for frequency integration:                              24
  INTEG_INFO| Clenshaw-Curtius quadrature
  INTEG_INFO| Number of integration points:                                  100
  INTEG_INFO| Number of integration points per RPA group:                    100
  MATRIX_INFO| Number row processes:                                           6
  MATRIX_INFO| Number column processes:                                        4
  MATRIX_INFO| Row block size:                                                13
  MATRIX_INFO| Column block size:                                             19
  INTEG_INFO| Scaling parameter:                                         0.20000
  INTEG_INFO| Started with Integration point   1 of 100
