 DBCSR| CPU Multiplication driver                                           BLAS (U)
 DBCSR| Multrec recursion limit                                              512 (U)
 DBCSR| Multiplication stack size                                           1000 (D)
 DBCSR| Maximum elements for images                                    UNLIMITED (U)
 DBCSR| Multiplicative factor virtual images                                   1 (U)
 DBCSR| Use multiplication densification                                       T (D)
 DBCSR| Multiplication size stacks                                             3 (U)
 DBCSR| Use memory pool for CPU allocation                                     F (U)
 DBCSR| Number of 3D layers                                               SINGLE (U)
 DBCSR| Use MPI memory allocation                                              F (U)
 DBCSR| Use RMA algorithm                                                      F (U)
 DBCSR| Use Communication thread                                               T (U)
 DBCSR| Communication thread load                                             75 (D)
 DBCSR| MPI: My process id                                                     0
 DBCSR| MPI: Number of processes                                              24
 DBCSR| OMP: Current number of threads                                         4
 DBCSR| OMP: Max number of threads                                             4
 DBCSR| Split modifier for TAS multiplication algorithm                  1.0E+00 (U)


  **** **** ******  **  PROGRAM STARTED AT               2025-03-04 07:58:15.777
 ***** ** ***  *** **   PROGRAM STARTED ON                          i03r08c02s05
 **    ****   ******    PROGRAM STARTED BY                               di38fab
 ***** **    ** ** **   PROGRAM PROCESS ID                               1096374
  **** **  *******  **  PROGRAM STARTED IN /hppfs/scratch/04/di38fab/05_MOL/W4-1
                                           1+ALK/so/SZV

 CP2K| version string:                 CP2K version 2025.1 (Development Version)
 CP2K| source code revision number:                                  git:47877ba
 CP2K| cp2kflags: omp libint fftw3 libxc parallel scalapack max_contr=4         
 CP2K| is freely available from                            https://www.cp2k.org/
 CP2K| Program compiled at                          Thu Feb 20 16:00:34 CET 2025
 CP2K| Program compiled on                                               login04
 CP2K| Program compiled for                                        Supermuc-foss
 CP2K| Data directory path          /hppfs/work/pn36zo/di38fab/newcp2k/cp2k/data
 CP2K| Input file name                                                    GW.inp

 GLOBAL| Force Environment number                                              1
 GLOBAL| Basis set file name            /hppfs/scratch/04/di38fab/04_TMD/BASIS_A
 GLOBAL| Potential file name            /hppfs/work/pn36zo/di38fab/cp2k/data/ALL
 GLOBAL| MM Potential file name                                     MM_POTENTIAL
 GLOBAL| Coordinate file name                                      __STD_INPUT__
 GLOBAL| Method name                                                        CP2K
 GLOBAL| Project name                                                       MoS2
 GLOBAL| Run type                                                         ENERGY
 GLOBAL| FFT library                                                       FFTW3
 GLOBAL| Diagonalization library                                       ScaLAPACK
 GLOBAL| DGEMM library                                                      BLAS
 GLOBAL| Orthonormality check for eigenvectors                          DISABLED
 GLOBAL| Matrix multiplication library                                 ScaLAPACK
 GLOBAL| All-to-all communication in single precision                          F
 GLOBAL| FFTs using library dependent lengths                                  F
 GLOBAL| Grid backend                                                       AUTO
 GLOBAL| Global print level                                               MEDIUM
 GLOBAL| MPI I/O enabled                                                       T
 GLOBAL| Total number of message passing processes                            24
 GLOBAL| Number of threads for this process                                    4
 GLOBAL| This output is from process                                           0
 GLOBAL| OpenMP stack size per thread (OMP_STACKSIZE)                    default
 GLOBAL| CPU model name             Intel(R) Xeon(R) Platinum 8174 CPU @ 3.10GHz

 MEMORY| system memory details [Kb]
 MEMORY|                        rank 0           min           max       average
 MEMORY| MemTotal             98436660      98436660      98436664      98436662
 MEMORY| MemFree              84038648      84038648      84153500      84096074
 MEMORY| Buffers                     0             0             0             0
 MEMORY| Cached                2412212       2412212       2429328       2420770
 MEMORY| Slab                  1233268       1233268       1261576       1247422
 MEMORY| SReclaimable           265556        265556        269580        267568
 MEMORY| MemLikelyFree        86716416      86716416      86852408      86784412


 *** Fundamental physical constants (SI units) ***

 *** Literature: B. J. Mohr and B. N. Taylor,
 ***             CODATA recommended values of the fundamental physical
 ***             constants: 2006, Web Version 5.1
 ***             http://physics.nist.gov/constants

 Speed of light in vacuum [m/s]                             2.99792458000000E+08
 Magnetic constant or permeability of vacuum [N/A**2]       1.25663706143592E-06
 Electric constant or permittivity of vacuum [F/m]          8.85418781762039E-12
 Planck constant (h) [J*s]                                  6.62606896000000E-34
 Planck constant (h-bar) [J*s]                              1.05457162825177E-34
 Elementary charge [C]                                      1.60217648700000E-19
 Electron mass [kg]                                         9.10938215000000E-31
 Electron g factor [ ]                                     -2.00231930436220E+00
 Proton mass [kg]                                           1.67262163700000E-27
 Fine-structure constant                                    7.29735253760000E-03
 Rydberg constant [1/m]                                     1.09737315685270E+07
 Avogadro constant [1/mol]                                  6.02214179000000E+23
 Boltzmann constant [J/K]                                   1.38065040000000E-23
 Atomic mass unit [kg]                                      1.66053878200000E-27
 Bohr radius [m]                                            5.29177208590000E-11

 *** Conversion factors ***

 [u] -> [a.u.]                                              1.82288848426455E+03
 [Angstrom] -> [Bohr] = [a.u.]                              1.88972613288564E+00
 [a.u.] = [Bohr] -> [Angstrom]                              5.29177208590000E-01
 [a.u.] -> [s]                                              2.41888432650478E-17
 [a.u.] -> [fs]                                             2.41888432650478E-02
 [a.u.] -> [J]                                              4.35974393937059E-18
 [a.u.] -> [N]                                              8.23872205491840E-08
 [a.u.] -> [K]                                              3.15774647902944E+05
 [a.u.] -> [kJ/mol]                                         2.62549961709828E+03
 [a.u.] -> [kcal/mol]                                       6.27509468713739E+02
 [a.u.] -> [Pa]                                             2.94210107994716E+13
 [a.u.] -> [bar]                                            2.94210107994716E+08
 [a.u.] -> [atm]                                            2.90362800883016E+08
 [a.u.] -> [eV]                                             2.72113838565563E+01
 [a.u.] -> [Hz]                                             6.57968392072181E+15
 [a.u.] -> [1/cm] (wave numbers)                            2.19474631370540E+05
 [a.u./Bohr**2] -> [1/cm]                                   5.14048714338585E+03
 

 CELL_TOP| Volume [angstrom^3]:                                     27000.000000
 CELL_TOP| Vector a [angstrom    30.000     0.000     0.000   |a| =    30.000000
 CELL_TOP| Vector b [angstrom     0.000    30.000     0.000   |b| =    30.000000
 CELL_TOP| Vector c [angstrom     0.000     0.000    30.000   |c| =    30.000000
 CELL_TOP| Angle (b,c), alpha [degree]:                                90.000000
 CELL_TOP| Angle (a,c), beta  [degree]:                                90.000000
 CELL_TOP| Angle (a,b), gamma [degree]:                                90.000000
 CELL_TOP| Numerically orthorhombic:                                         YES
 CELL_TOP| Periodicity                                                      NONE

 GENERATE|  Preliminary Number of Bonds generated:                             0
 GENERATE|  Achieved consistency in connectivity generation.

 CELL| Volume [angstrom^3]:                                         27000.000000
 CELL| Vector a [angstrom]:      30.000     0.000     0.000   |a| =    30.000000
 CELL| Vector b [angstrom]:       0.000    30.000     0.000   |b| =    30.000000
 CELL| Vector c [angstrom]:       0.000     0.000    30.000   |c| =    30.000000
 CELL| Angle (b,c), alpha [degree]:                                    90.000000
 CELL| Angle (a,c), beta  [degree]:                                    90.000000
 CELL| Angle (a,b), gamma [degree]:                                    90.000000
 CELL| Numerically orthorhombic:                                             YES
 CELL| Periodicity                                                          NONE

 CELL_REF| Volume [angstrom^3]:                                     27000.000000
 CELL_REF| Vector a [angstrom    30.000     0.000     0.000   |a| =    30.000000
 CELL_REF| Vector b [angstrom     0.000    30.000     0.000   |b| =    30.000000
 CELL_REF| Vector c [angstrom     0.000     0.000    30.000   |c| =    30.000000
 CELL_REF| Angle (b,c), alpha [degree]:                                90.000000
 CELL_REF| Angle (a,c), beta  [degree]:                                90.000000
 CELL_REF| Angle (a,b), gamma [degree]:                                90.000000
 CELL_REF| Numerically orthorhombic:                                         YES
 CELL_REF| Periodicity                                                      NONE

 *******************************************************************************
 *******************************************************************************
 **                                                                           **
 **     #####                         ##              ##                      **
 **    ##   ##            ##          ##              ##                      **
 **   ##     ##                       ##            ######                    **
 **   ##     ##  ##   ##  ##   #####  ##  ##   ####   ##    #####    #####    **
 **   ##     ##  ##   ##  ##  ##      ## ##   ##      ##   ##   ##  ##   ##   **
 **   ##  ## ##  ##   ##  ##  ##      ####     ###    ##   ######   ######    **
 **    ##  ###   ##   ##  ##  ##      ## ##      ##   ##   ##       ##        **
 **     #######   #####   ##   #####  ##  ##  ####    ##    #####   ##        **
 **           ##                                                    ##        **
 **                                                                           **
 **                                                ... make the atoms dance   **
 **                                                                           **
 **            Copyright (C) by CP2K developers group (2000-2025)             **
 **                      J. Chem. Phys. 152, 194103 (2020)                    **
 **                                                                           **
 *******************************************************************************

 DFT| Spin restricted Kohn-Sham (RKS) calculation                            RKS
 DFT| Multiplicity                                                             1
 DFT| Number of spin states                                                    1
 DFT| Charge                                                                   0
 DFT| Self-interaction correction (SIC)                                       NO
 DFT| Cutoffs: density                                              1.000000E-10
 DFT|          gradient                                             1.000000E-10
 DFT|          tau                                                  1.000000E-10
 DFT|          cutoff_smoothing_range                               0.000000E+00
 DFT| XC density smoothing                                                  NONE
 DFT| XC derivatives                                                          PW

 FUNCTIONAL| PBE:
 FUNCTIONAL| J.P.Perdew, K.Burke, M.Ernzerhof, Phys. Rev. Letter, vol. 77, n 18,
 FUNCTIONAL|  pp. 3865-3868, (1996)sx=0.750sc=1.000{spin unpolarized}           


 QS| Method:                                                                GAPW
 QS| Density plane wave grid type                        NON-SPHERICAL FULLSPACE
 QS| Number of grid levels:                                                    4
 QS| Density cutoff [a.u.]:                                                250.0
 QS| Multi grid cutoff [a.u.]: 1) grid level                               250.0
 QS|                           2) grid level                                83.3
 QS|                           3) grid level                                27.8
 QS|                           4) grid level                                 9.3
 QS| Grid level progression factor:                                          3.0
 QS| Relative density cutoff [a.u.]:                                        50.0
 QS| Interaction thresholds: eps_pgf_orb:                                1.0E-12
 QS|                         eps_filter_matrix:                          0.0E+00
 QS|                         eps_core_charge:                            1.0E-14
 QS|                         eps_rho_gspace:                             1.0E-12
 QS|                         eps_rho_rspace:                             1.0E-12
 QS|                         eps_gvg_rspace:                             1.0E-06
 QS|                         eps_ppl:                                    1.0E-02
 QS|                         eps_ppnl:                                   1.0E-08
 QS| GAPW|      One center basis from orbital basis primitives
 QS| GAPW|                   eps_fit:                                    1.0E-04
 QS| GAPW|                   eps_iso:                                    1.0E-12
 QS| GAPW|                   eps_svd:                                    1.0E-08
 QS| GAPW|                   eps_cpc:                                    1.0E-12
 QS| GAPW|   atom-r-grid: quadrature:                                     GC_LOG
 QS| GAPW|      atom-s-grid:  max l :                                          4
 QS| GAPW|      max_l_rho0 :                                                   2


 ATOMIC KIND INFORMATION

  1. Atomic kind: S                                     Number of atoms:       1

     Orbital Basis Set                                         aug-SZV-MOLOPT-ae

       Number of orbital shell sets:                                           3
       Number of orbital shells:                                               8
       Number of primitive Cartesian functions:                               19
       Number of Cartesian basis functions:                                   19
       Number of spherical basis functions:                                   18
       Norm type:                                                              2

       Normalised Cartesian orbitals:

                        Set   Shell   Orbital            Exponent    Coefficient

                          1       1    1s                0.072000       0.000000
                                                         0.148404       0.047043
                                                         0.287959       0.206056
                                                         0.581913       0.071732
                                                         1.300021      -0.154888
                                                         3.466625      -0.128563
                                                        12.944394      -0.038633

                          1       2    2s                0.072000       0.024465
                                                         0.148404       0.270123
                                                         0.287959      -0.286184
                                                         0.581913       0.001423
                                                         1.300021       0.046778
                                                         3.466625       0.000000
                                                        12.944394       0.000000

                          1       3    2px               0.072000       0.000000
                                                         0.148404       0.013902
                                                         0.287959       0.147021
                                                         0.581913       0.300295
                                                         1.300021       0.150808
                                                         3.466625      -0.123340
                                                        12.944394      -0.249863
                          1       3    2py               0.072000       0.000000
                                                         0.148404       0.013902
                                                         0.287959       0.147021
                                                         0.581913       0.300295
                                                         1.300021       0.150808
                                                         3.466625      -0.123340
                                                        12.944394      -0.249863
                          1       3    2pz               0.072000       0.000000
                                                         0.148404       0.013902
                                                         0.287959       0.147021
                                                         0.581913       0.300295
                                                         1.300021       0.150808
                                                         3.466625      -0.123340
                                                        12.944394      -0.249863

                          1       4    3px               0.072000      -0.066040
                                                         0.148404       0.050064
                                                         0.287959      -0.069730
                                                         0.581913       0.158592
                                                         1.300021      -0.055990
                                                         3.466625       0.000000
                                                        12.944394       0.000000
                          1       4    3py               0.072000      -0.066040
                                                         0.148404       0.050064
                                                         0.287959      -0.069730
                                                         0.581913       0.158592
                                                         1.300021      -0.055990
                                                         3.466625       0.000000
                                                        12.944394       0.000000
                          1       4    3pz               0.072000      -0.066040
                                                         0.148404       0.050064
                                                         0.287959      -0.069730
                                                         0.581913       0.158592
                                                         1.300021      -0.055990
                                                         3.466625       0.000000
                                                        12.944394       0.000000

                          1       5    3dx2              0.072000       0.001679
                                                         0.148404       0.023049
                                                         0.287959       0.065695
                                                         0.581913       0.132541
                                                         1.300021       0.392654
                                                         3.466625       0.000000
                                                        12.944394       0.000000
                          1       5    3dxy              0.072000       0.002907
                                                         0.148404       0.039921
                                                         0.287959       0.113787
                                                         0.581913       0.229567
                                                         1.300021       0.680096
                                                         3.466625       0.000000
                                                        12.944394       0.000000
                          1       5    3dxz              0.072000       0.002907
                                                         0.148404       0.039921
                                                         0.287959       0.113787
                                                         0.581913       0.229567
                                                         1.300021       0.680096
                                                         3.466625       0.000000
                                                        12.944394       0.000000
                          1       5    3dy2              0.072000       0.001679
                                                         0.148404       0.023049
                                                         0.287959       0.065695
                                                         0.581913       0.132541
                                                         1.300021       0.392654
                                                         3.466625       0.000000
                                                        12.944394       0.000000
                          1       5    3dyz              0.072000       0.002907
                                                         0.148404       0.039921
                                                         0.287959       0.113787
                                                         0.581913       0.229567
                                                         1.300021       0.680096
                                                         3.466625       0.000000
                                                        12.944394       0.000000
                          1       5    3dz2              0.072000       0.001679
                                                         0.148404       0.023049
                                                         0.287959       0.065695
                                                         0.581913       0.132541
                                                         1.300021       0.392654
                                                         3.466625       0.000000
                                                        12.944394       0.000000

                          2       1    1s              345.589679      -0.757073
                                                        68.401217      -0.796580
                                                        21.259047      -0.238395
                                                         8.179122       0.862581
                                                         3.552198       1.097452
                                                         1.628232       0.247277

                          2       2    2px             345.589679       7.985348
                                                        68.401217      10.565097
                                                        21.259047      11.315175
                                                         8.179122       8.242094
                                                         3.552198       2.960247
                                                         1.628232       0.266650
                          2       2    2py             345.589679       7.985348
                                                        68.401217      10.565097
                                                        21.259047      11.315175
                                                         8.179122       8.242094
                                                         3.552198       2.960247
                                                         1.628232       0.266650
                          2       2    2pz             345.589679       7.985348
                                                        68.401217      10.565097
                                                        21.259047      11.315175
                                                         8.179122       8.242094
                                                         3.552198       2.960247
                                                         1.628232       0.266650

                          3       1    1s             5529.038289       4.187581
                                                      1013.743118       6.320396
                                                       283.608793       8.301345
                                                        97.427275       8.189970
                                                        37.833862       4.528212
                                                        15.582074       0.728513

     RI Auxiliary Basis Set             RI_aug-SZV-MOLOPT-ae_N_RI_072_s_p_d_f_g_

       Number of orbital shell sets:                                          20
       Number of orbital shells:                                              20
       Number of primitive Cartesian functions:                               20
       Number of Cartesian basis functions:                                   93
       Number of spherical basis functions:                                   72
       Norm type:                                                              2

       Normalised Cartesian orbitals:

                        Set   Shell   Orbital            Exponent    Coefficient

                          1       1   19gx4              0.275952       0.032265
                          1       1   19gx3y             0.275952       0.085365
                          1       1   19gx3z             0.275952       0.085365
                          1       1   19gx2y2            0.275952       0.110205
                          1       1   19gx2yz            0.275952       0.190881
                          1       1   19gx2z2            0.275952       0.110205
                          1       1   19gxy3             0.275952       0.085365
                          1       1   19gxy2z            0.275952       0.190881
                          1       1   19gxyz2            0.275952       0.190881
                          1       1   19gxz3             0.275952       0.085365
                          1       1   19gy4              0.275952       0.032265
                          1       1   19gy3z             0.275952       0.085365
                          1       1   19gy2z2            0.275952       0.110205
                          1       1   19gyz3             0.275952       0.085365
                          1       1   19gz4              0.275952       0.032265

                          2       1    8px               0.294315       0.308998
                          2       1    8py               0.294315       0.308998
                          2       1    8pz               0.294315       0.308998

                          3       1    1s                0.341678       0.318510

                          4       1   14dx2              0.636998       0.747568
                          4       1   14dxy              0.636998       1.294827
                          4       1   14dxz              0.636998       1.294827
                          4       1   14dy2              0.636998       0.747568
                          4       1   14dyz              0.636998       1.294827
                          4       1   14dz2              0.636998       0.747568

                          5       1   17fx3              0.644663       0.548218
                          5       1   17fx2y             0.644663       1.225852
                          5       1   17fx2z             0.644663       1.225852
                          5       1   17fxy2             0.644663       1.225852
                          5       1   17fxyz             0.644663       2.123239
                          5       1   17fxz2             0.644663       1.225852
                          5       1   17fy3              0.644663       0.548218
                          5       1   17fy2z             0.644663       1.225852
                          5       1   17fyz2             0.644663       1.225852
                          5       1   17fz3              0.644663       0.548218

                          6       1    9px               0.688735       0.894345
                          6       1    9py               0.688735       0.894345
                          6       1    9pz               0.688735       0.894345

                          7       1    2s                1.050557       0.739562

                          8       1   20gx4              1.447489       3.077001
                          8       1   20gx3y             1.447489       8.140980
                          8       1   20gx3z             1.447489       8.140980
                          8       1   20gx2y2            1.447489      10.509960
                          8       1   20gx2yz            1.447489      18.203785
                          8       1   20gx2z2            1.447489      10.509960
                          8       1   20gxy3             1.447489       8.140980
                          8       1   20gxy2z            1.447489      18.203785
                          8       1   20gxyz2            1.447489      18.203785
                          8       1   20gxz3             1.447489       8.140980
                          8       1   20gy4              1.447489       3.077001
                          8       1   20gy3z             1.447489       8.140980
                          8       1   20gy2z2            1.447489      10.509960
                          8       1   20gyz3             1.447489       8.140980
                          8       1   20gz4              1.447489       3.077001

                          9       1   15dx2              1.719528       4.249869
                          9       1   15dxy              1.719528       7.360988
                          9       1   15dxz              1.719528       7.360988
                          9       1   15dy2              1.719528       4.249869
                          9       1   15dyz              1.719528       7.360988
                          9       1   15dz2              1.719528       4.249869

                         10       1   10px               2.690083       4.910742
                         10       1   10py               2.690083       4.910742
                         10       1   10pz               2.690083       4.910742

                         11       1    3s                3.398643       1.783977

                         12       1   18fx3              4.079789      34.824857
                         12       1   18fx2y             4.079789      77.870748
                         12       1   18fx2z             4.079789      77.870748
                         12       1   18fxy2             4.079789      77.870748
                         12       1   18fxyz             4.079789     134.876093
                         12       1   18fxz2             4.079789      77.870748
                         12       1   18fy3              4.079789      34.824857
                         12       1   18fy2z             4.079789      77.870748
                         12       1   18fyz2             4.079789      77.870748
                         12       1   18fz3              4.079789      34.824857

                         13       1   11px               9.102547      22.536879
                         13       1   11py               9.102547      22.536879
                         13       1   11pz               9.102547      22.536879

                         14       1    4s               10.929094       4.283988

                         15       1   16dx2             29.234258     604.951557
                         15       1   16dxy             29.234258    1047.806833
                         15       1   16dxz             29.234258    1047.806833
                         15       1   16dy2             29.234258     604.951557
                         15       1   16dyz             29.234258    1047.806833
                         15       1   16dz2             29.234258     604.951557

                         16       1   12px              30.338365     101.491646
                         16       1   12py              30.338365     101.491646
                         16       1   12pz              30.338365     101.491646

                         17       1    5s               34.879449      10.229097

                         18       1   13px             100.633172     454.324902
                         18       1   13py             100.633172     454.324902
                         18       1   13pz             100.633172     454.324902

                         19       1    6s              111.091943      24.387766

                         20       1    7s              353.642060      58.120993

       Atomic covalent radius [Angstrom]:                                  1.020

       Atomic van der Waals radius [Angstrom]:                             1.800

     The atoms of this atomic kind are PAW atoms (GAPW):
       Hard Gaussian function radius:                                      1.512
       Rho0 radius:                                                        1.512
       Maximum GTO radius used for PAW projector construction:            24.566

     GAPW Soft Basis Set                                  aug-SZV-MOLOPT-ae_soft

       Number of orbital shell sets:                                           3
       Number of orbital shells:                                               8
       Number of primitive Cartesian functions:                                8
       Number of Cartesian basis functions:                                   19
       Number of spherical basis functions:                                   18
       Norm type:                                                              2

       Normalised Cartesian orbitals:

                        Set   Shell   Orbital            Exponent    Coefficient

                          1       1    1s                0.072000       0.000000
                                                         0.148404       0.047043
                                                         0.287959       0.206056
                                                         0.581913       0.071732
                                                         1.300021      -0.154888
                                                         3.466625      -0.128563

                          1       2    2s                0.072000       0.024465
                                                         0.148404       0.270123
                                                         0.287959      -0.286184
                                                         0.581913       0.001423
                                                         1.300021       0.046778
                                                         3.466625       0.000000

                          1       3    2px               0.072000       0.000000
                                                         0.148404       0.013902
                                                         0.287959       0.147021
                                                         0.581913       0.300295
                                                         1.300021       0.150808
                                                         3.466625      -0.123340
                          1       3    2py               0.072000       0.000000
                                                         0.148404       0.013902
                                                         0.287959       0.147021
                                                         0.581913       0.300295
                                                         1.300021       0.150808
                                                         3.466625      -0.123340
                          1       3    2pz               0.072000       0.000000
                                                         0.148404       0.013902
                                                         0.287959       0.147021
                                                         0.581913       0.300295
                                                         1.300021       0.150808
                                                         3.466625      -0.123340

                          1       4    3px               0.072000      -0.066040
                                                         0.148404       0.050064
                                                         0.287959      -0.069730
                                                         0.581913       0.158592
                                                         1.300021      -0.055990
                                                         3.466625       0.000000
                          1       4    3py               0.072000      -0.066040
                                                         0.148404       0.050064
                                                         0.287959      -0.069730
                                                         0.581913       0.158592
                                                         1.300021      -0.055990
                                                         3.466625       0.000000
                          1       4    3pz               0.072000      -0.066040
                                                         0.148404       0.050064
                                                         0.287959      -0.069730
                                                         0.581913       0.158592
                                                         1.300021      -0.055990
                                                         3.466625       0.000000

                          1       5    3dx2              0.072000       0.001679
                                                         0.148404       0.023049
                                                         0.287959       0.065695
                                                         0.581913       0.132541
                                                         1.300021       0.392654
                                                         3.466625       0.000000
                          1       5    3dxy              0.072000       0.002907
                                                         0.148404       0.039921
                                                         0.287959       0.113787
                                                         0.581913       0.229567
                                                         1.300021       0.680096
                                                         3.466625       0.000000
                          1       5    3dxz              0.072000       0.002907
                                                         0.148404       0.039921
                                                         0.287959       0.113787
                                                         0.581913       0.229567
                                                         1.300021       0.680096
                                                         3.466625       0.000000
                          1       5    3dy2              0.072000       0.001679
                                                         0.148404       0.023049
                                                         0.287959       0.065695
                                                         0.581913       0.132541
                                                         1.300021       0.392654
                                                         3.466625       0.000000
                          1       5    3dyz              0.072000       0.002907
                                                         0.148404       0.039921
                                                         0.287959       0.113787
                                                         0.581913       0.229567
                                                         1.300021       0.680096
                                                         3.466625       0.000000
                          1       5    3dz2              0.072000       0.001679
                                                         0.148404       0.023049
                                                         0.287959       0.065695
                                                         0.581913       0.132541
                                                         1.300021       0.392654
                                                         3.466625       0.000000

                          2       1    1s                3.552198       1.097452
                                                         1.628232       0.247277

                          2       2    2px               3.552198       2.960247
                                                         1.628232       0.266650
                          2       2    2py               3.552198       2.960247
                                                         1.628232       0.266650
                          2       2    2pz               3.552198       2.960247
                                                         1.628232       0.266650

                          3       1    1s         

     AE Potential information for                                            ALL

       Description:                                       All-electron potential
                                          Krack, Parrinello, PCCP 2, 2105 (2000)

       Gaussian exponent of the core charge distribution:               2.834467
       Electronic configuration (s p d ...):                           6  10   0

  2. Atomic kind: O                                     Number of atoms:       1

     Orbital Basis Set                                         aug-SZV-MOLOPT-ae

       Number of orbital shell sets:                                           2
       Number of orbital shells:                                               5
       Number of primitive Cartesian functions:                               13
       Number of Cartesian basis functions:                                    9
       Number of spherical basis functions:                                    9
       Norm type:                                                              2

       Normalised Cartesian orbitals:

                        Set   Shell   Orbital            Exponent    Coefficient

                          1       1    1s                0.123000       0.000000
                                                         0.245881       0.059902
                                                         0.536420       0.265853
                                                         1.235135       0.208956
                                                         3.210345      -0.057750
                                                        10.329320      -0.192968
                                                        52.187762      -0.183398

                          1       2    2s                0.123000      -0.253465
                                                         0.245881       0.187097
                                                         0.536420       0.063592
                                                         1.235135       0.074938
                                                         3.210345       0.000000
                                                        10.329320       0.000000
                                                        52.187762       0.000000

                          1       3    2px               0.123000       0.000000
                                                         0.245881       0.025102
                                                         0.536420       0.278668
                                                         1.235135       0.775885
                                                         3.210345       1.065175
                                                        10.329320       0.994565
                                                        52.187762       0.751716
                          1       3    2py               0.123000       0.000000
                                                         0.245881       0.025102
                                                         0.536420       0.278668
                                                         1.235135       0.775885
                                                         3.210345       1.065175
                                                        10.329320       0.994565
                                                        52.187762       0.751716
                          1       3    2pz               0.123000       0.000000
                                                         0.245881       0.025102
                                                         0.536420       0.278668
                                                         1.235135       0.775885
                                                         3.210345       1.065175
                                                        10.329320       0.994565
                                                        52.187762       0.751716

                          1       4    3px               0.123000       0.048536
                                                         0.245881       0.257066
                                                         0.536420      -0.539300
                                                         1.235135      -0.153605
                                                         3.210345       0.000000
                                                        10.329320       0.000000
                                                        52.187762       0.000000
                          1       4    3py               0.123000       0.048536
                                                         0.245881       0.257066
                                                         0.536420      -0.539300
                                                         1.235135      -0.153605
                                                         3.210345       0.000000
                                                        10.329320       0.000000
                                                        52.187762       0.000000
                          1       4    3pz               0.123000       0.048536
                                                         0.245881       0.257066
                                                         0.536420      -0.539300
                                                         1.235135      -0.153605
                                                         3.210345       0.000000
                                                        10.329320       0.000000
                                                        52.187762       0.000000

                          2       1    1s             1355.584234       1.459053
                                                       248.544885       2.202176
                                                        69.533902       2.892385
                                                        23.886772       2.853580
                                                         9.275933       1.577736
                                                         3.820341       0.253831

     RI Auxiliary Basis Set             RI_aug-SZV-MOLOPT-ae-SR_N_RI_041_s_p_d_f

       Number of orbital shell sets:                                          13
       Number of orbital shells:                                              13
       Number of primitive Cartesian functions:                               13
       Number of Cartesian basis functions:                                   49
       Number of spherical basis functions:                                   41
       Norm type:                                                              2

       Normalised Cartesian orbitals:

                        Set   Shell   Orbital            Exponent    Coefficient

                          1       1    1s                0.578587       0.472810

                          2       1    6px               0.780295       1.045355
                          2       1    6py               0.780295       1.045355
                          2       1    6pz               0.780295       1.045355

                          3       1   10dx2              0.833706       1.197242
                          3       1   10dxy              0.833706       2.073683
                          3       1   10dxz              0.833706       2.073683
                          3       1   10dy2              0.833706       1.197242
                          3       1   10dyz              0.833706       2.073683
                          3       1   10dz2              0.833706       1.197242

                          4       1   12fx3              1.109067       1.858272
                          4       1   12fx2y             1.109067       4.155223
                          4       1   12fx2z             1.109067       4.155223
                          4       1   12fxy2             1.109067       4.155223
                          4       1   12fxyz             1.109067       7.197057
                          4       1   12fxz2             1.109067       4.155223
                          4       1   12fy3              1.109067       1.858272
                          4       1   12fy2z             1.109067       4.155223
                          4       1   12fyz2             1.109067       4.155223
                          4       1   12fz3              1.109067       1.858272

                          5       1    2s                1.362244       0.898672

                          6       1    7px               1.646979       2.659500
                          6       1    7py               1.646979       2.659500
                          6       1    7pz               1.646979       2.659500

                          7       1   11dx2              3.352121      13.668437
                          7       1   11dxy              3.352121      23.674428
                          7       1   11dxz              3.352121      23.674428
                          7       1   11dy2              3.352121      13.668437
                          7       1   11dyz              3.352121      23.674428
                          7       1   11dz2              3.352121      13.668437

                          8       1   13fx3              4.593152      45.467791
                          8       1   13fx2y             4.593152     101.669072
                          8       1   13fx2z             4.593152     101.669072
                          8       1   13fxy2             4.593152     101.669072
                          8       1   13fxyz             4.593152     176.095999
                          8       1   13fxz2             4.593152     101.669072
                          8       1   13fy3              4.593152      45.467791
                          8       1   13fy2z             4.593152     101.669072
                          8       1   13fyz2             4.593152     101.669072
                          8       1   13fz3              4.593152      45.467791

                          9       1    3s                6.300889       2.834402

                         10       1    8px               7.242711      16.936222
                         10       1    8py               7.242711      16.936222
                         10       1    8pz               7.242711      16.936222

                         11       1    9px              31.220564     105.194011
                         11       1    9py              31.220564     105.194011
                         11       1    9pz              31.220564     105.194011

                         12       1    4s               32.040850       9.598163

                         13       1    5s              162.601818      32.452947

       Atomic covalent radius [Angstrom]:                                  0.730

       Atomic van der Waals radius [Angstrom]:                             1.520

     The atoms of this atomic kind are PAW atoms (GAPW):
       Hard Gaussian function radius:                                      1.512
       Rho0 radius:                                                        1.512
       Maximum GTO radius used for PAW projector construction:            24.566

     GAPW Soft Basis Set                                  aug-SZV-MOLOPT-ae_soft

       Number of orbital shell sets:                                           2
       Number of orbital shells:                                               5
       Number of primitive Cartesian functions:                                6
       Number of Cartesian basis functions:                                    9
       Number of spherical basis functions:                                    9
       Norm type:                                                              2

       Normalised Cartesian orbitals:

                        Set   Shell   Orbital            Exponent    Coefficient

                          1       1    1s                0.123000       0.000000
                                                         0.245881       0.059902
                                                         0.536420       0.265853
                                                         1.235135       0.208956
                                                         3.210345      -0.057750

                          1       2    2s                0.123000      -0.253465
                                                         0.245881       0.187097
                                                         0.536420       0.063592
                                                         1.235135       0.074938
                                                         3.210345       0.000000

                          1       3    2px               0.123000       0.000000
                                                         0.245881       0.025102
                                                         0.536420       0.278668
                                                         1.235135       0.775885
                                                         3.210345       1.065175
                          1       3    2py               0.123000       0.000000
                                                         0.245881       0.025102
                                                         0.536420       0.278668
                                                         1.235135       0.775885
                                                         3.210345       1.065175
                          1       3    2pz               0.123000       0.000000
                                                         0.245881       0.025102
                                                         0.536420       0.278668
                                                         1.235135       0.775885
                                                         3.210345       1.065175

                          1       4    3px               0.123000       0.048536
                                                         0.245881       0.257066
                                                         0.536420      -0.539300
                                                         1.235135      -0.153605
                                                         3.210345       0.000000
                          1       4    3py               0.123000       0.048536
                                                         0.245881       0.257066
                                                         0.536420      -0.539300
                                                         1.235135      -0.153605
                                                         3.210345       0.000000
                          1       4    3pz               0.123000       0.048536
                                                         0.245881       0.257066
                                                         0.536420      -0.539300
                                                         1.235135      -0.153605
                                                         3.210345       0.000000

                          2       1    1s                3.820341       0.253831

     AE Potential information for                                            ALL

       Description:                                       All-electron potential
                                          Krack, Parrinello, PCCP 2, 2105 (2000)

       Gaussian exponent of the core charge distribution:               8.154466
       Electronic configuration (s p d ...):                           4   4   0


 MOLECULE KIND INFORMATION


 All atoms are their own molecule, skipping detailed information


 TOTAL NUMBERS AND MAXIMUM NUMBERS

  Total number of            - Atomic kinds:                                   2
                             - Atoms:                                          2
                             - Shell sets:                                     5
                             - Shells:                                        13
                             - Primitive Cartesian functions:                 32
                             - Cartesian basis functions:                     28
                             - Spherical basis functions:                     27

  Maximum angular momentum of the orbital basis functions:                     2


 MODULE QUICKSTEP: ATOMIC COORDINATES IN ANGSTROM

   Atom Kind Element         X             Y             Z       Z(eff)     Mass
      1    1 S    16     15.743107     15.000000     15.000000  16.0000  32.0650
      2    2 O     8     14.256893     15.000000     15.000000   8.0000  15.9994



 SCF PARAMETERS         Density guess:                                    ATOMIC
                        --------------------------------------------------------
                        max_scf:                                             500
                        max_scf_history:                                       0
                        max_diis:                                              4
                        --------------------------------------------------------
                        eps_scf:                                        1.00E-06
                        eps_scf_history:                                0.00E+00
                        eps_diis:                                       1.00E-01
                        eps_eigval:                                     1.00E-05
                        --------------------------------------------------------
                        level_shift [a.u.]:                             0.000000
                        added MOs                                        15    0
                        --------------------------------------------------------
                        Mixing method:                            BROYDEN_MIXING
                                                charge density mixing in g-space
                        --------------------------------------------------------
                        No outer SCF

 PW_GRID| Information for grid number                                          1
 PW_GRID| Grid distributed over                                    24 processors
 PW_GRID| Real space group dimensions                                    24    1
 PW_GRID| the grid is blocked:                                                NO
 PW_GRID| Cutoff [a.u.]                                                    250.0
 PW_GRID| spherical cutoff:                                                   NO
 PW_GRID|   Bounds   1           -202     202                Points:         405
 PW_GRID|   Bounds   2           -202     202                Points:         405
 PW_GRID|   Bounds   3           -202     202                Points:         405
 PW_GRID| Volume element (a.u.^3)  0.2743E-02     Volume (a.u.^3)    182205.0337
 PW_GRID| Grid span                                                    FULLSPACE
 PW_GRID|   Distribution                         Average         Max         Min
 PW_GRID|   G-Vectors                          2767921.9     2768175     2767770
 PW_GRID|   G-Rays                                6834.4        6835        6834
 PW_GRID|   Real Space Points                  2767921.9     2788425     2624400

 PW_GRID| Information for grid number                                          2
 PW_GRID| Number of the reference grid                                         1
 PW_GRID| Grid distributed over                                    24 processors
 PW_GRID| Real space group dimensions                                    24    1
 PW_GRID| the grid is blocked:                                                NO
 PW_GRID| Cutoff [a.u.]                                                     83.3
 PW_GRID| spherical cutoff:                                                   NO
 PW_GRID|   Bounds   1           -120     119                Points:         240
 PW_GRID|   Bounds   2           -120     119                Points:         240
 PW_GRID|   Bounds   3           -120     119                Points:         240
 PW_GRID| Volume element (a.u.^3)  0.1318E-01     Volume (a.u.^3)    182205.0337
 PW_GRID| Grid span                                                    FULLSPACE
 PW_GRID|   Distribution                         Average         Max         Min
 PW_GRID|   G-Vectors                           576000.0      576240      575760
 PW_GRID|   G-Rays                                2400.0        2401        2399
 PW_GRID|   Real Space Points                   576000.0      576000      576000

 PW_GRID| Information for grid number                                          3
 PW_GRID| Number of the reference grid                                         1
 PW_GRID| Grid distributed over                                    24 processors
 PW_GRID| Real space group dimensions                                    24    1
 PW_GRID| the grid is blocked:                                                NO
 PW_GRID| Cutoff [a.u.]                                                     27.8
 PW_GRID| spherical cutoff:                                                   NO
 PW_GRID|   Bounds   1            -67      67                Points:         135
 PW_GRID|   Bounds   2            -67      67                Points:         135
 PW_GRID|   Bounds   3            -67      67                Points:         135
 PW_GRID| Volume element (a.u.^3)  0.7406E-01     Volume (a.u.^3)    182205.0337
 PW_GRID| Grid span                                                    FULLSPACE
 PW_GRID|   Distribution                         Average         Max         Min
 PW_GRID|   G-Vectors                           102515.6      102735      102330
 PW_GRID|   G-Rays                                 759.4         761         758
 PW_GRID|   Real Space Points                   102515.6      109350       91125

 PW_GRID| Information for grid number                                          4
 PW_GRID| Number of the reference grid                                         1
 PW_GRID| Grid distributed over                                    24 processors
 PW_GRID| Real space group dimensions                                    24    1
 PW_GRID| the grid is blocked:                                                NO
 PW_GRID| Cutoff [a.u.]                                                      9.3
 PW_GRID| spherical cutoff:                                                   NO
 PW_GRID|   Bounds   1            -40      39                Points:          80
 PW_GRID|   Bounds   2            -40      39                Points:          80
 PW_GRID|   Bounds   3            -40      39                Points:          80
 PW_GRID| Volume element (a.u.^3)  0.3559         Volume (a.u.^3)    182205.0337
 PW_GRID| Grid span                                                    FULLSPACE
 PW_GRID|   Distribution                         Average         Max         Min
 PW_GRID|   G-Vectors                            21333.3       21360       21280
 PW_GRID|   G-Rays                                 266.7         267         266
 PW_GRID|   Real Space Points                    21333.3       25600       19200

 POISSON| Solver                                                         WAVELET
 POISSON| Wavelet| Scaling function                                           40
 POISSON| Periodicity                                                       NONE

 RS_GRID| Information for grid number                                          1
 RS_GRID|   Bounds   1           -202     202                Points:         405
 RS_GRID|   Bounds   2           -202     202                Points:         405
 RS_GRID|   Bounds   3           -202     202                Points:         405
 RS_GRID| Real space distribution over                                  4 groups
 RS_GRID| Real space distribution along direction                              2
 RS_GRID| Border size                                                         34
 RS_GRID| Real space distribution over                                  6 groups
 RS_GRID| Real space distribution along direction                              3
 RS_GRID| Border size                                                         34
 RS_GRID|   Distribution                         Average         Max         Min
 RS_GRID|   Planes                                 169.2         170         169
 RS_GRID|   Distribution                         Average         Max         Min
 RS_GRID|   Planes                                 135.5         136         135

 RS_GRID| Information for grid number                                          2
 RS_GRID|   Bounds   1           -120     119                Points:         240
 RS_GRID|   Bounds   2           -120     119                Points:         240
 RS_GRID|   Bounds   3           -120     119                Points:         240
 RS_GRID| Real space distribution over                                  4 groups
 RS_GRID| Real space distribution along direction                              2
 RS_GRID| Border size                                                         37
 RS_GRID| Real space distribution over                                  6 groups
 RS_GRID| Real space distribution along direction                              3
 RS_GRID| Border size                                                         37
 RS_GRID|   Distribution                         Average         Max         Min
 RS_GRID|   Planes                                 134.0         134         134
 RS_GRID|   Distribution                         Average         Max         Min
 RS_GRID|   Planes                                 114.0         114         114

 RS_GRID| Information for grid number                                          3
 RS_GRID|   Bounds   1            -67      67                Points:         135
 RS_GRID|   Bounds   2            -67      67                Points:         135
 RS_GRID|   Bounds   3            -67      67                Points:         135
 RS_GRID| Real space fully replicated
 RS_GRID| Group size                                                           1

 RS_GRID| Information for grid number                                          4
 RS_GRID|   Bounds   1            -40      39                Points:          80
 RS_GRID|   Bounds   2            -40      39                Points:          80
 RS_GRID|   Bounds   3            -40      39                Points:          80
 RS_GRID| Real space fully replicated
 RS_GRID| Group size                                                           1

  HFX_INFO| Replica ID:                                                        1
  HFX_INFO| FRACTION:                                               0.2500000000
  HFX_INFO| Interaction Potential:                                       COULOMB
  HFX_INFO| EPS_SCHWARZ:                                                 1.0E-10
  HFX_INFO| EPS_SCHWARZ_FORCES                                           1.0E-08
  HFX_INFO| EPS_STORAGE_SCALING:                                         1.0E+00
  HFX_INFO| NBINS:                                                            64
  HFX_INFO| BLOCK_SIZE:                                                        1
  HFX_INFO| Number of periodic shells considered:                           NONE
  HFX_INFO| Number of periodic cells considered:                            NONE

 
 RI-RPA| using GPW style
 

 OVERLAP MATRIX CONDITION NUMBER
 1-Norm Condition Number (Estimate)
   CN : |A|*|A^-1|:  3.638E+000 *  6.120E+001   = 2.227E+002  Log(1-CN):  2.3477
 1-Norm and 2-Norm Condition Numbers using Diagonalization
   CN : |A|*|A^-1|:  3.638E+000 *  6.120E+001   = 2.227E+002  Log(1-CN):  2.3477
   CN : max/min ev:  2.920E+000 /  2.630E-002   = 1.110E+002  Log(2-CN):  2.0454

 Number of electrons:                                                         24
 Number of occupied orbitals:                                                 12
 Number of molecular orbitals:                                                27

 Number of orbital functions:                                                 27
 Number of independent orbital functions:                                     27

 Extrapolation method: initial_guess

 Atomic guess: The first density matrix is obtained in terms of atomic orbitals
               and electronic configurations assigned to each atomic kind

 Guess for atomic kind: S

 Electronic structure
    Total number of core electrons                                          0.00
    Total number of valence electrons                                      16.00
    Total number of electrons                                              16.00
    Multiplicity                                                   not specified
    S      2.00  2.00  2.00
    P      6.00  4.00


 *******************************************************************************
                  Iteration          Convergence                     Energy [au]
 *******************************************************************************
                          1        0.325153                    -395.368844208554
                          2        0.769788E-01                -395.373921927869
                          3        0.368099E-01                -395.376202597199
                          4        0.129618E-03                -395.376832071110
                          5        0.133940E-05                -395.376832076700
                          6        0.254531E-07                -395.376832076701

 Energy components [Hartree]           Total Energy ::         -395.376832076701
                                        Band Energy ::         -226.966643727914
                                     Kinetic Energy ::          394.825609305730
                                   Potential Energy ::         -790.202441382430
                                      Virial (-V/T) ::            2.001396117065
                                        Core Energy ::         -547.411728359316
                                          XC Energy ::          -24.142205636462
                                     Coulomb Energy ::          176.177101919077

 Orbital energies  State     L     Occupation   Energy[a.u.]          Energy[eV]

                       1     0          2.000     -87.926561        -2392.603394
                       2     0          2.000      -7.518786         -204.596567
                       3     0          2.000      -0.619513          -16.857812

                       1     1          6.000      -5.631327         -153.236213
                       2     1          4.000      -0.262240           -7.135910


 Total Electron Density at R=0:                                      2331.742763

 Guess for atomic kind: O

 Electronic structure
    Total number of core electrons                                          0.00
    Total number of valence electrons                                       8.00
    Total number of electrons                                               8.00
    Multiplicity                                                   not specified
    S      2.00  2.00
    P      4.00


 *******************************************************************************
                  Iteration          Convergence                     Energy [au]
 *******************************************************************************
                          1        0.735249                     -74.156692399509
                          2        0.374970                     -74.229519281434
                          3        0.137476E-02                 -74.265323889138
                          4        0.125117E-03                 -74.265324305080
                          5        0.240576E-05                 -74.265324309459
                          6        0.135447E-05                 -74.265324309460
                          7        0.538171E-07                 -74.265324309461

 Energy components [Hartree]           Total Energy ::          -74.265324309461
                                        Band Energy ::          -41.262202594008
                                     Kinetic Energy ::           72.991524336317
                                   Potential Energy ::         -147.256848645778
                                      Virial (-V/T) ::            2.017451340888
                                        Core Energy ::         -102.038650666845
                                          XC Energy ::           -7.668930692176
                                     Coulomb Energy ::           35.442257049561

 Orbital energies  State     L     Occupation   Energy[a.u.]          Energy[eV]

                       1     0          2.000     -18.982629         -516.543598
                       2     0          2.000      -0.922184          -25.093913

                       1     1          4.000      -0.363144           -9.881653


 Total Electron Density at R=0:                                       265.214148
 Re-scaling the density matrix to get the right number of electrons
                  # Electrons              Trace(P)               Scaling factor
                           24                24.000                        1.000


 SCF WAVEFUNCTION OPTIMIZATION

  Step     Update method      Time    Convergence         Total energy    Change
  ------------------------------------------------------------------------------

  HFX_MEM_INFO| Est. max. program size before HFX [MiB]:                    2147
 POWELL| Error in trust region
 POWELL| Error in trust region
 POWELL| Error in trust region
 POWELL| Error in trust region
 POWELL| Error in trust region
 POWELL| Error in trust region
 POWELL| Error in trust region
 POWELL| Error in trust region
 POWELL| Error in trust region
 POWELL| Error in trust region
 POWELL| Error in trust region
 POWELL| Error in trust region
 POWELL| Error in trust region
 POWELL| Error in trust region
 POWELL| Error in trust region
 POWELL| Error in trust region
 POWELL| Error in trust region
 POWELL| Error in trust region
 POWELL| Error in trust region
 POWELL| Error in trust region
 POWELL| Error in trust region
 POWELL| Error in trust region
 POWELL| Error in trust region
 POWELL| Error in trust region
  HFX_MEM_INFO| Number of cart. primitive ERI's calculated:            153588693
  HFX_MEM_INFO| Number of sph. ERI's calculated:                          229626
  HFX_MEM_INFO| Number of sph. ERI's stored in-core:                      229626
  HFX_MEM_INFO| Number of sph. ERI's stored on disk:                           0
  HFX_MEM_INFO| Number of sph. ERI's calculated on the fly:                    0
  HFX_MEM_INFO| Total memory consumption ERI's RAM [MiB]:                      2
  HFX_MEM_INFO| Whereof max-vals [MiB]:                                        1
  HFX_MEM_INFO| Total compression factor ERI's RAM:                         1.18
  HFX_MEM_INFO| Total memory consumption ERI's disk [MiB]:                     0
  HFX_MEM_INFO| Total compression factor ERI's disk:                        0.00
  HFX_MEM_INFO| Size of density/Fock matrix [MiB]:                             0
  HFX_MEM_INFO| Size of buffers [MiB]:                                         0
  HFX_MEM_INFO| Est. max. program size after HFX  [MiB]:                    2663

     1 NoMix/Diag. 0.10E+00   12.4     0.74304116      -471.9579018133 -4.72E+02
     2 Broy./Diag. 0.10E+00    4.8     0.04160330      -470.8564171767  1.10E+00
     3 Broy./Diag. 0.10E+00    4.9     0.10448020      -470.9970192243 -1.41E-01
     4 Broy./Diag. 0.10E+00    5.0     0.20501158      -471.6650745198 -6.68E-01
     5 Broy./Diag. 0.10E+00    5.2     0.05777978      -472.2445726342 -5.79E-01
     6 Broy./Diag. 0.10E+00    5.1     0.03738197      -472.3863652171 -1.42E-01
     7 Broy./Diag. 0.10E+00    5.4     0.18390250      -471.9178021206  4.69E-01
     8 Broy./Diag. 0.10E+00    5.4     0.04041634      -471.3610771470  5.57E-01
     9 Broy./Diag. 0.10E+00    5.4     0.01234292      -471.2961187670  6.50E-02
    10 Broy./Diag. 0.10E+00    5.6     0.01257961      -471.2963572035 -2.38E-04
    11 Broy./Diag. 0.10E+00    5.5     0.06794261      -471.3878790076 -9.15E-02
    12 Broy./Diag. 0.10E+00    5.4     0.03117184      -471.5766024048 -1.89E-01
    13 Broy./Diag. 0.10E+00    5.4     0.00877363      -471.6395143462 -6.29E-02
    14 Broy./Diag. 0.10E+00    5.4     0.01333122      -471.6391385418  3.76E-04
[...]
   418 Broy./Diag. 0.10E+00    5.5     0.08134173      -471.5712377260 -7.44E-03
   419 Broy./Diag. 0.10E+00    5.5     0.10592890      -471.5908821714 -1.96E-02
   420 Broy./Diag. 0.10E+00    5.5     0.13965969      -471.6071005994 -1.62E-02
   421 Broy./Diag. 0.10E+00    5.4     0.14519429      -471.6214511192 -1.44E-02
   422 Broy./Diag. 0.10E+00    5.5     0.14042463      -471.6235946839 -2.14E-03
   423 Broy./Diag. 0.10E+00    5.5     0.10055197      -471.6263830892 -2.79E-03
   424 Broy./Diag. 0.10E+00    5.5     0.08196347      -471.6326271917 -6.24E-03
   425 Broy./Diag. 0.10E+00    5.6     0.07441753      -471.6377765398 -5.15E-03
   426 Broy./Diag. 0.10E+00    5.5     0.26578813      -471.6395156526 -1.74E-03
   427 Broy./Diag. 0.10E+00    5.6     0.35746486      -471.6467727088 -7.26E-03
   428 Broy./Diag. 0.10E+00    5.7     0.23807493      -471.6823343618 -3.56E-02
   429 Broy./Diag. 0.10E+00    5.7     0.12563022      -471.7184233677 -3.61E-02
   430 Broy./Diag. 0.10E+00    5.5     0.05490177      -471.7384217311 -2.00E-02
   431 Broy./Diag. 0.10E+00    5.5     0.02877346      -471.7545512298 -1.61E-02
   432 Broy./Diag. 0.10E+00    5.5     0.01195021      -471.7505730523  3.98E-03
   433 Broy./Diag. 0.10E+00    5.5     0.02066410      -471.7263287451  2.42E-02
   434 Broy./Diag. 0.10E+00    5.4     0.02898663      -471.7004117418  2.59E-02
   435 Broy./Diag. 0.10E+00    5.4     0.05640071      -471.6917690990  8.64E-03
   436 Broy./Diag. 0.10E+00    5.4     0.06565422      -471.6910920040  6.77E-04
   437 Broy./Diag. 0.10E+00    5.4     0.07468493      -471.6911018453 -9.84E-06
   438 Broy./Diag. 0.10E+00    5.4     0.12494600      -471.6792392892  1.19E-02
   439 Broy./Diag. 0.10E+00    5.5     0.19588600      -471.6723271418  6.91E-03
   440 Broy./Diag. 0.10E+00    5.5     0.24494813      -471.6598763042  1.25E-02
   441 Broy./Diag. 0.10E+00    5.5     0.22837620      -471.6409151827  1.90E-02
   442 Broy./Diag. 0.10E+00    5.6     0.18438248      -471.6308407447  1.01E-02
   443 Broy./Diag. 0.10E+00    5.6     0.12580719      -471.6210322047  9.81E-03
   444 Broy./Diag. 0.10E+00    5.7     0.12041304      -471.6051483469  1.59E-02
   445 Broy./Diag. 0.10E+00    5.7     0.10930745      -471.5915269527  1.36E-02
   446 Broy./Diag. 0.10E+00    5.6     0.11305799      -471.5857354295  5.79E-03
   447 Broy./Diag. 0.10E+00    5.6     0.10933522      -471.5771681301  8.57E-03
   448 Broy./Diag. 0.10E+00    5.5     0.09715626      -471.5711250626  6.04E-03
   449 Broy./Diag. 0.10E+00    5.5     0.09124757      -471.5728924418 -1.77E-03
   450 Broy./Diag. 0.10E+00    5.4     0.10127534      -471.5828378808 -9.95E-03
   451 Broy./Diag. 0.10E+00    5.4     0.08424987      -471.6108273435 -2.80E-02
   452 Broy./Diag. 0.10E+00    5.5     0.06893146      -471.6422750429 -3.14E-02
   453 Broy./Diag. 0.10E+00    5.4     0.03594842      -471.6679541861 -2.57E-02
   454 Broy./Diag. 0.10E+00    5.4     0.01656132      -471.6852673866 -1.73E-02
   455 Broy./Diag. 0.10E+00    5.4     0.01466301      -471.6981170379 -1.28E-02
   456 Broy./Diag. 0.10E+00    5.4     0.01286588      -471.7055544849 -7.44E-03
   457 Broy./Diag. 0.10E+00    5.6     0.00915837      -471.7047515829  8.03E-04
   458 Broy./Diag. 0.10E+00    5.6     0.01664170      -471.6844635085  2.03E-02
   459 Broy./Diag. 0.10E+00    5.7     0.01005207      -471.6623520533  2.21E-02
   460 Broy./Diag. 0.10E+00    5.7     0.00462428      -471.6492757563  1.31E-02
   461 Broy./Diag. 0.10E+00    5.6     0.00169751      -471.6462590166  3.02E-03
   462 Broy./Diag. 0.10E+00    5.5     0.00615779      -471.6576633531 -1.14E-02
   463 Broy./Diag. 0.10E+00    5.5     0.00224202      -471.6660643075 -8.40E-03
   464 Broy./Diag. 0.10E+00    5.4     0.00173221      -471.6633592636  2.71E-03
   465 Broy./Diag. 0.10E+00    5.4     0.00146739      -471.6643359086 -9.77E-04
   466 Broy./Diag. 0.10E+00    5.5     0.00648598      -471.6664478411 -2.11E-03
   467 Broy./Diag. 0.10E+00    5.4     0.00210402      -471.6685136512 -2.07E-03
   468 Broy./Diag. 0.10E+00    5.4     0.00603185      -471.6705185245 -2.00E-03
   469 Broy./Diag. 0.10E+00    5.4     0.01313136      -471.6688191302  1.70E-03
   470 Broy./Diag. 0.10E+00    5.5     0.01368486      -471.6671195649  1.70E-03
   471 Broy./Diag. 0.10E+00    5.4     0.00959583      -471.6682207138 -1.10E-03
   472 Broy./Diag. 0.10E+00    5.6     0.00401372      -471.6681660892  5.46E-05
   473 Broy./Diag. 0.10E+00    5.7     0.00791926      -471.6661915563  1.97E-03
   474 Broy./Diag. 0.10E+00    5.6     0.01950463      -471.6655160944  6.75E-04
   475 Broy./Diag. 0.10E+00    5.6     0.02898419      -471.6657044076 -1.88E-04
   476 Broy./Diag. 0.10E+00    5.5     0.04799171      -471.6652727335  4.32E-04
   477 Broy./Diag. 0.10E+00    5.5     0.07688081      -471.6652835414 -1.08E-05
   478 Broy./Diag. 0.10E+00    5.4     0.13050966      -471.6648545904  4.29E-04
   479 Broy./Diag. 0.10E+00    5.4     0.18765346      -471.6611993488  3.66E-03
   480 Broy./Diag. 0.10E+00    5.4     0.22925591      -471.6537418653  7.46E-03
   481 Broy./Diag. 0.10E+00    5.4     0.21546274      -471.6382893784  1.55E-02
   482 Broy./Diag. 0.10E+00    5.4     0.23246152      -471.6172412706  2.10E-02
   483 Broy./Diag. 0.10E+00    5.5     0.18745257      -471.5986420294  1.86E-02
   484 Broy./Diag. 0.10E+00    5.5     0.13454857      -471.5857464943  1.29E-02
   485 Broy./Diag. 0.10E+00    5.5     0.09125455      -471.5778979707  7.85E-03
   486 Broy./Diag. 0.10E+00    5.4     0.06516185      -471.5746130770  3.28E-03
   487 Broy./Diag. 0.10E+00    5.5     0.04920215      -471.5750369313 -4.24E-04
   488 Broy./Diag. 0.10E+00    5.6     0.06635909      -471.5764322265 -1.40E-03
   489 Broy./Diag. 0.10E+00    5.4     0.09587139      -471.5774253921 -9.93E-04
   490 Broy./Diag. 0.10E+00    5.5     0.13722218      -471.5742021628  3.22E-03
   491 Broy./Diag. 0.10E+00    5.7     0.16341502      -471.5619871606  1.22E-02
   492 Broy./Diag. 0.10E+00    5.7     0.14465368      -471.5464238981  1.56E-02
   493 Broy./Diag. 0.10E+00    5.7     0.09650284      -471.5430841969  3.34E-03
   494 Broy./Diag. 0.10E+00    5.6     0.03197155      -471.5683138595 -2.52E-02
   495 Broy./Diag. 0.10E+00    5.5     0.01309330      -471.6109173304 -4.26E-02
   496 Broy./Diag. 0.10E+00    5.4     0.10497737      -471.7335069259 -1.23E-01
   497 Broy./Diag. 0.10E+00    5.5     0.11478831      -471.8342924799 -1.01E-01
   498 Broy./Diag. 0.10E+00    5.5     0.27862293      -471.8921081077 -5.78E-02
   499 Broy./Diag. 0.10E+00    5.5     0.20831337      -471.9801311642 -8.80E-02
   500 Broy./Diag. 0.10E+00    5.5     0.12219022      -472.0259721272 -4.58E-02

  Leaving inner SCF loop after reaching   500 steps.


  Electronic density on regular grids:        -15.1306266569        8.8693733431
  Core density on regular grids:               24.0000000000        0.0000000000
  Hard and soft densities (Lebedev):          -37.7844344392      -28.9048018584
  Total Rho_soft + Rho1_hard - Rho1_soft      -24.0102592377
  Total charge density (r-space):              -0.0102592377
  Total Rho_soft + Rho0_soft (g-space):        -0.0102605739

  Overlap energy of the core charge distribution:               0.00000038248801
  Self energy of the core charge distribution:               -244.85361235670862
  Core Hamiltonian energy:                                   -233.92314899951040
  Hartree energy:                                              41.00791499787739
  Exchange-correlation energy:                                 -6.71302568102514
  Hartree-Fock Exchange energy:                                -8.28555622557914

  GAPW| Exc from hard and soft atomic rho1:                   -18.99909407196968
  GAPW| local Eh = 1 center integrals:                         -0.25945017277461

  Total energy:                                              -472.02597212720229

 *******************************************************************************
 *   ___                                                                       *
 *  /   \                                                                      *
 * [ABORT]                                                                     *
 *  \___/     SCF run NOT converged. To continue the calculation regardless,   *
 *    |             please set the keyword IGNORE_CONVERGENCE_FAILURE.         *
 *  O/|                                                                        *
 * /| |                                                                        *
 * / \                                                            qs_scf.F:611 *
 *******************************************************************************


 ===== Routine Calling Stack ===== 

            3 scf_env_do_scf
            2 qs_energies
            1 CP2K

 *******************************************************************************
 *   ___                                                                       *
 *  /   \                                                                      *
 * [ABORT]                                                                     *
 *  \___/     SCF run NOT converged. To continue the calculation regardless,   *
 *    |             please set the keyword IGNORE_CONVERGENCE_FAILURE.         *
 *  O/|                                                                        *
 * /| |                                                                        *
 * / \                                                            qs_scf.F:611 *
 *******************************************************************************


 ===== Routine Calling Stack ===== 

            3 scf_env_do_scf
            2 qs_energies
            1 CP2K

 *******************************************************************************
 *   ___                                                                       *
 *  /   \                                                                      *
 * [ABORT]                                                                     *
 *  \___/     SCF run NOT converged. To continue the calculation regardless,   *
 *    |             please set the keyword IGNORE_CONVERGENCE_FAILURE.         *
 *  O/|                                                                        *
 * /| |                                                                        *
 * / \                                                            qs_scf.F:611 *
 *******************************************************************************


 ===== Routine Calling Stack ===== 

            3 scf_env_do_scf
            2 qs_energies
            1 CP2K

 *******************************************************************************
 *   ___                                                                       *
 *  /   \                                                                      *
 * [ABORT]                                                                     *
 *  \___/     SCF run NOT converged. To continue the calculation regardless,   *
 *    |             please set the keyword IGNORE_CONVERGENCE_FAILURE.         *
 *  O/|                                                                        *
 * /| |                                                                        *
 * / \                                                            qs_scf.F:611 *
 *******************************************************************************


 ===== Routine Calling Stack ===== 

            3 scf_env_do_scf
            2 qs_energies
            1 CP2K

 *******************************************************************************
 *   ___                                                                       *
 *  /   \                                                                      *
 * [ABORT]                                                                     *
 *  \___/     SCF run NOT converged. To continue the calculation regardless,   *
 *    |             please set the keyword IGNORE_CONVERGENCE_FAILURE.         *
 *  O/|                                                                        *
 * /| |                                                                        *
 * / \                                                            qs_scf.F:611 *
 *******************************************************************************


 ===== Routine Calling Stack ===== 

            3 scf_env_do_scf
            2 qs_energies
            1 CP2K

 *******************************************************************************
 *   ___                                                                       *
 *  /   \                                                                      *
 * [ABORT]                                                                     *
 *  \___/     SCF run NOT converged. To continue the calculation regardless,   *
 *    |             please set the keyword IGNORE_CONVERGENCE_FAILURE.         *
 *  O/|                                                                        *
 * /| |                                                                        *
 * / \                                                            qs_scf.F:611 *
 *******************************************************************************


 ===== Routine Calling Stack ===== 

            3 scf_env_do_scf
            2 qs_energies
            1 CP2K

 *******************************************************************************
 *   ___                                                                       *
 *  /   \                                                                      *
 * [ABORT]                                                                     *
 *  \___/     SCF run NOT converged. To continue the calculation regardless,   *
 *    |             please set the keyword IGNORE_CONVERGENCE_FAILURE.         *
 *  O/|                                                                        *
 * /| |                                                                        *
 * / \                                                            qs_scf.F:611 *
 *******************************************************************************


 ===== Routine Calling Stack ===== 

            3 scf_env_do_scf
            2 qs_energies
            1 CP2K

 *******************************************************************************
 *   ___                                                                       *
 *  /   \                                                                      *
 * [ABORT]                                                                     *
 *  \___/     SCF run NOT converged. To continue the calculation regardless,   *
 *    |             please set the keyword IGNORE_CONVERGENCE_FAILURE.         *
 *  O/|                                                                        *
 * /| |                                                                        *
 * / \                                                            qs_scf.F:611 *
 *******************************************************************************


 ===== Routine Calling Stack ===== 

            3 scf_env_do_scf
            2 qs_energies
            1 CP2K

 *******************************************************************************
 *   ___                                                                       *
 *  /   \                                                                      *
 * [ABORT]                                                                     *
 *  \___/     SCF run NOT converged. To continue the calculation regardless,   *
 *    |             please set the keyword IGNORE_CONVERGENCE_FAILURE.         *
 *  O/|                                                                        *
 * /| |                                                                        *
 * / \                                                            qs_scf.F:611 *
 *******************************************************************************


 ===== Routine Calling Stack ===== 

            3 scf_env_do_scf
            2 qs_energies
            1 CP2K

 *******************************************************************************
 *   ___                                                                       *
 *  /   \                                                                      *
 * [ABORT]                                                                     *
 *  \___/     SCF run NOT converged. To continue the calculation regardless,   *
 *    |             please set the keyword IGNORE_CONVERGENCE_FAILURE.         *
 *  O/|                                                                        *
 * /| |                                                                        *
 * / \                                                            qs_scf.F:611 *
 *******************************************************************************


 ===== Routine Calling Stack ===== 

            3 scf_env_do_scf
            2 qs_energies
            1 CP2K

 *******************************************************************************
 *   ___                                                                       *
 *  /   \                                                                      *
 * [ABORT]                                                                     *
 *  \___/     SCF run NOT converged. To continue the calculation regardless,   *
 *    |             please set the keyword IGNORE_CONVERGENCE_FAILURE.         *
 *  O/|                                                                        *
 * /| |                                                                        *
 * / \                                                            qs_scf.F:611 *
 *******************************************************************************


 ===== Routine Calling Stack ===== 

            3 scf_env_do_scf
            2 qs_energies
            1 CP2K

 *******************************************************************************
 *   ___                                                                       *
 *  /   \                                                                      *
 * [ABORT]                                                                     *
 *  \___/     SCF run NOT converged. To continue the calculation regardless,   *
 *    |             please set the keyword IGNORE_CONVERGENCE_FAILURE.         *
 *  O/|                                                                        *
 * /| |                                                                        *
 * / \                                                            qs_scf.F:611 *
 *******************************************************************************


 ===== Routine Calling Stack ===== 

            3 scf_env_do_scf
            2 qs_energies
            1 CP2K

 *******************************************************************************
 *   ___                                                                       *
 *  /   \                                                                      *
 * [ABORT]                                                                     *
 *  \___/     SCF run NOT converged. To continue the calculation regardless,   *
 *    |             please set the keyword IGNORE_CONVERGENCE_FAILURE.         *
 *  O/|                                                                        *
 * /| |                                                                        *
 * / \                                                            qs_scf.F:611 *
 *******************************************************************************


 ===== Routine Calling Stack ===== 

            3 scf_env_do_scf
            2 qs_energies
            1 CP2K
