 DBCSR| CPU Multiplication driver                                           BLAS (U)
 DBCSR| Multrec recursion limit                                              512 (U)
 DBCSR| Multiplication stack size                                           1000 (D)
 DBCSR| Maximum elements for images                                    UNLIMITED (U)
 DBCSR| Multiplicative factor virtual images                                   1 (U)
 DBCSR| Use multiplication densification                                       T (D)
 DBCSR| Multiplication size stacks                                             3 (U)
 DBCSR| Use memory pool for CPU allocation                                     F (U)
 DBCSR| Number of 3D layers                                               SINGLE (U)
 DBCSR| Use MPI memory allocation                                              F (U)
 DBCSR| Use RMA algorithm                                                      F (U)
 DBCSR| Use Communication thread                                               T (U)
 DBCSR| Communication thread load                                             75 (D)
 DBCSR| MPI: My process id                                                     0
 DBCSR| MPI: Number of processes                                              24
 DBCSR| OMP: Current number of threads                                         4
 DBCSR| OMP: Max number of threads                                             4
 DBCSR| Split modifier for TAS multiplication algorithm                  1.0E+00 (U)


  **** **** ******  **  PROGRAM STARTED AT               2025-03-16 15:31:05.654
 ***** ** ***  *** **   PROGRAM STARTED ON                          i02r11c04s06
 **    ****   ******    PROGRAM STARTED BY                               di38fab
 ***** **    ** ** **   PROGRAM PROCESS ID                                 26140
  **** **  *******  **  PROGRAM STARTED IN /hppfs/scratch/04/di38fab/05_MOL/W4-1
                                           1+ALK/bh/SZV/GW+BSE/Np1

 CP2K| version string:                 CP2K version 2025.1 (Development Version)
 CP2K| source code revision number:                                  git:d2e611a
 CP2K| cp2kflags: omp libint fftw3 libxc parallel scalapack max_contr=4         
 CP2K| is freely available from                            https://www.cp2k.org/
 CP2K| Program compiled at                       Thu 06 Mar 2025 05:09:20 PM CET
 CP2K| Program compiled on                                               login02
 CP2K| Program compiled for                                        Supermuc-foss
 CP2K| Data directory path                  /hppfs/work/pn36zo/di38fab/cp2k/data
 CP2K| Input file name                                                    GW.inp

 GLOBAL| Force Environment number                                              1
 GLOBAL| Basis set file name            /hppfs/scratch/04/di38fab/04_TMD/BASIS_A
 GLOBAL| Potential file name            /hppfs/work/pn36zo/di38fab/cp2k/data/ALL
 GLOBAL| MM Potential file name                                     MM_POTENTIAL
 GLOBAL| Coordinate file name                                      __STD_INPUT__
 GLOBAL| Method name                                                        CP2K
 GLOBAL| Project name                                                       MoS2
 GLOBAL| Run type                                                         ENERGY
 GLOBAL| FFT library                                                       FFTW3
 GLOBAL| Diagonalization library                                       ScaLAPACK
 GLOBAL| DGEMM library                                                      BLAS
 GLOBAL| Orthonormality check for eigenvectors                          DISABLED
 GLOBAL| Matrix multiplication library                                 ScaLAPACK
 GLOBAL| All-to-all communication in single precision                          F
 GLOBAL| FFTs using library dependent lengths                                  F
 GLOBAL| Grid backend                                                       AUTO
 GLOBAL| Global print level                                               MEDIUM
 GLOBAL| MPI I/O enabled                                                       T
 GLOBAL| Total number of message passing processes                            24
 GLOBAL| Number of threads for this process                                    4
 GLOBAL| This output is from process                                           0
 GLOBAL| OpenMP stack size per thread (OMP_STACKSIZE)                    default
 GLOBAL| CPU model name             Intel(R) Xeon(R) Platinum 8174 CPU @ 3.10GHz

 MEMORY| system memory details [Kb]
 MEMORY|                        rank 0           min           max       average
 MEMORY| MemTotal             98436660      98436660      98436664      98436662
 MEMORY| MemFree              85102928      83986652      85102928      84544790
 MEMORY| Buffers                     0             0             0             0
 MEMORY| Cached                2370228       2370228       2377988       2374108
 MEMORY| Slab                  1039428       1039428       1262180       1150804
 MEMORY| SReclaimable           239540        239540        270104        254822
 MEMORY| MemLikelyFree        87712696      86634744      87712696      87173720


 *** Fundamental physical constants (SI units) ***

 *** Literature: B. J. Mohr and B. N. Taylor,
 ***             CODATA recommended values of the fundamental physical
 ***             constants: 2006, Web Version 5.1
 ***             http://physics.nist.gov/constants

 Speed of light in vacuum [m/s]                             2.99792458000000E+08
 Magnetic constant or permeability of vacuum [N/A**2]       1.25663706143592E-06
 Electric constant or permittivity of vacuum [F/m]          8.85418781762039E-12
 Planck constant (h) [J*s]                                  6.62606896000000E-34
 Planck constant (h-bar) [J*s]                              1.05457162825177E-34
 Elementary charge [C]                                      1.60217648700000E-19
 Electron mass [kg]                                         9.10938215000000E-31
 Electron g factor [ ]                                     -2.00231930436220E+00
 Proton mass [kg]                                           1.67262163700000E-27
 Fine-structure constant                                    7.29735253760000E-03
 Rydberg constant [1/m]                                     1.09737315685270E+07
 Avogadro constant [1/mol]                                  6.02214179000000E+23
 Boltzmann constant [J/K]                                   1.38065040000000E-23
 Atomic mass unit [kg]                                      1.66053878200000E-27
 Bohr radius [m]                                            5.29177208590000E-11

 *** Conversion factors ***

 [u] -> [a.u.]                                              1.82288848426455E+03
 [Angstrom] -> [Bohr] = [a.u.]                              1.88972613288564E+00
 [a.u.] = [Bohr] -> [Angstrom]                              5.29177208590000E-01
 [a.u.] -> [s]                                              2.41888432650478E-17
 [a.u.] -> [fs]                                             2.41888432650478E-02
 [a.u.] -> [J]                                              4.35974393937059E-18
 [a.u.] -> [N]                                              8.23872205491840E-08
 [a.u.] -> [K]                                              3.15774647902944E+05
 [a.u.] -> [kJ/mol]                                         2.62549961709828E+03
 [a.u.] -> [kcal/mol]                                       6.27509468713739E+02
 [a.u.] -> [Pa]                                             2.94210107994716E+13
 [a.u.] -> [bar]                                            2.94210107994716E+08
 [a.u.] -> [atm]                                            2.90362800883016E+08
 [a.u.] -> [eV]                                             2.72113838565563E+01
 [a.u.] -> [Hz]                                             6.57968392072181E+15
 [a.u.] -> [1/cm] (wave numbers)                            2.19474631370540E+05
 [a.u./Bohr**2] -> [1/cm]                                   5.14048714338585E+03
 

 CELL_TOP| Volume [angstrom^3]:                                     27000.000000
 CELL_TOP| Vector a [angstrom    30.000     0.000     0.000   |a| =    30.000000
 CELL_TOP| Vector b [angstrom     0.000    30.000     0.000   |b| =    30.000000
 CELL_TOP| Vector c [angstrom     0.000     0.000    30.000   |c| =    30.000000
 CELL_TOP| Angle (b,c), alpha [degree]:                                90.000000
 CELL_TOP| Angle (a,c), beta  [degree]:                                90.000000
 CELL_TOP| Angle (a,b), gamma [degree]:                                90.000000
 CELL_TOP| Numerically orthorhombic:                                         YES
 CELL_TOP| Periodicity                                                      NONE

 GENERATE|  Preliminary Number of Bonds generated:                             0
 GENERATE|  Achieved consistency in connectivity generation.

 CELL| Volume [angstrom^3]:                                         27000.000000
 CELL| Vector a [angstrom]:      30.000     0.000     0.000   |a| =    30.000000
 CELL| Vector b [angstrom]:       0.000    30.000     0.000   |b| =    30.000000
 CELL| Vector c [angstrom]:       0.000     0.000    30.000   |c| =    30.000000
 CELL| Angle (b,c), alpha [degree]:                                    90.000000
 CELL| Angle (a,c), beta  [degree]:                                    90.000000
 CELL| Angle (a,b), gamma [degree]:                                    90.000000
 CELL| Numerically orthorhombic:                                             YES
 CELL| Periodicity                                                          NONE

 CELL_REF| Volume [angstrom^3]:                                     27000.000000
 CELL_REF| Vector a [angstrom    30.000     0.000     0.000   |a| =    30.000000
 CELL_REF| Vector b [angstrom     0.000    30.000     0.000   |b| =    30.000000
 CELL_REF| Vector c [angstrom     0.000     0.000    30.000   |c| =    30.000000
 CELL_REF| Angle (b,c), alpha [degree]:                                90.000000
 CELL_REF| Angle (a,c), beta  [degree]:                                90.000000
 CELL_REF| Angle (a,b), gamma [degree]:                                90.000000
 CELL_REF| Numerically orthorhombic:                                         YES
 CELL_REF| Periodicity                                                      NONE

 *******************************************************************************
 *******************************************************************************
 **                                                                           **
 **     #####                         ##              ##                      **
 **    ##   ##            ##          ##              ##                      **
 **   ##     ##                       ##            ######                    **
 **   ##     ##  ##   ##  ##   #####  ##  ##   ####   ##    #####    #####    **
 **   ##     ##  ##   ##  ##  ##      ## ##   ##      ##   ##   ##  ##   ##   **
 **   ##  ## ##  ##   ##  ##  ##      ####     ###    ##   ######   ######    **
 **    ##  ###   ##   ##  ##  ##      ## ##      ##   ##   ##       ##        **
 **     #######   #####   ##   #####  ##  ##  ####    ##    #####   ##        **
 **           ##                                                    ##        **
 **                                                                           **
 **                                                ... make the atoms dance   **
 **                                                                           **
 **            Copyright (C) by CP2K developers group (2000-2025)             **
 **                      J. Chem. Phys. 152, 194103 (2020)                    **
 **                                                                           **
 *******************************************************************************

 DFT| Spin restricted Kohn-Sham (RKS) calculation                            RKS
 DFT| Multiplicity                                                             1
 DFT| Number of spin states                                                    1
 DFT| Charge                                                                   0
 DFT| Self-interaction correction (SIC)                                       NO
 DFT| Cutoffs: density                                              1.000000E-10
 DFT|          gradient                                             1.000000E-10
 DFT|          tau                                                  1.000000E-10
 DFT|          cutoff_smoothing_range                               0.000000E+00
 DFT| XC density smoothing                                                  NONE
 DFT| XC derivatives                                                          PW

 FUNCTIONAL| PBE:
 FUNCTIONAL| J.P.Perdew, K.Burke, M.Ernzerhof, Phys. Rev. Letter, vol. 77, n 18,
 FUNCTIONAL|  pp. 3865-3868, (1996)sx=0.750sc=1.000{spin unpolarized}           


 QS| Method:                                                                GAPW
 QS| Density plane wave grid type                        NON-SPHERICAL FULLSPACE
 QS| Number of grid levels:                                                    4
 QS| Density cutoff [a.u.]:                                                250.0
 QS| Multi grid cutoff [a.u.]: 1) grid level                               250.0
 QS|                           2) grid level                                83.3
 QS|                           3) grid level                                27.8
 QS|                           4) grid level                                 9.3
 QS| Grid level progression factor:                                          3.0
 QS| Relative density cutoff [a.u.]:                                        50.0
 QS| Interaction thresholds: eps_pgf_orb:                                1.0E-12
 QS|                         eps_filter_matrix:                          0.0E+00
 QS|                         eps_core_charge:                            1.0E-14
 QS|                         eps_rho_gspace:                             1.0E-12
 QS|                         eps_rho_rspace:                             1.0E-12
 QS|                         eps_gvg_rspace:                             1.0E-06
 QS|                         eps_ppl:                                    1.0E-02
 QS|                         eps_ppnl:                                   1.0E-08
 QS| GAPW|      One center basis from orbital basis primitives
 QS| GAPW|                   eps_fit:                                    1.0E-04
 QS| GAPW|                   eps_iso:                                    1.0E-12
 QS| GAPW|                   eps_svd:                                    1.0E-08
 QS| GAPW|                   eps_cpc:                                    1.0E-12
 QS| GAPW|   atom-r-grid: quadrature:                                     GC_LOG
 QS| GAPW|      atom-s-grid:  max l :                                          4
 QS| GAPW|      max_l_rho0 :                                                   2


 ATOMIC KIND INFORMATION

  1. Atomic kind: B                                     Number of atoms:       1

     Orbital Basis Set                                         aug-SZV-MOLOPT-ae

       Number of orbital shell sets:                                           2
       Number of orbital shells:                                               6
       Number of primitive Cartesian functions:                               13
       Number of Cartesian basis functions:                                   15
       Number of spherical basis functions:                                   14
       Norm type:                                                              2

       Normalised Cartesian orbitals:

                        Set   Shell   Orbital            Exponent    Coefficient

                          1       1    1s                0.109280       0.032606
                                                         0.155613       0.000000
                                                         0.238409       0.144712
                                                         0.548949       0.113742
                                                         1.426820      -0.031435
                                                         4.590809      -0.105038
                                                        23.194561      -0.099829

                          1       2    2s                0.109280      -0.049098
                                                         0.155613      -0.119813
                                                         0.238409      -0.025283
                                                         0.548949       0.056653
                                                         1.426820       0.132404
                                                         4.590809       0.000000
                                                        23.194561       0.000000

                          1       3    2px               0.109280       0.009109
                                                         0.155613       0.000000
                                                         0.238409       0.101125
                                                         0.548949       0.281559
                                                         1.426820       0.386539
                                                         4.590809       0.360915
                                                        23.194561       0.272788
                          1       3    2py               0.109280       0.009109
                                                         0.155613       0.000000
                                                         0.238409       0.101125
                                                         0.548949       0.281559
                                                         1.426820       0.386539
                                                         4.590809       0.360915
                                                        23.194561       0.272788
                          1       3    2pz               0.109280       0.009109
                                                         0.155613       0.000000
                                                         0.238409       0.101125
                                                         0.548949       0.281559
                                                         1.426820       0.386539
                                                         4.590809       0.360915
                                                        23.194561       0.272788

                          1       4    3px               0.109280       0.062233
                                                         0.155613       0.035668
                                                         0.238409       0.015304
                                                         0.548949      -0.003054
                                                         1.426820       0.021875
                                                         4.590809       0.000000
                                                        23.194561       0.000000
                          1       4    3py               0.109280       0.062233
                                                         0.155613       0.035668
                                                         0.238409       0.015304
                                                         0.548949      -0.003054
                                                         1.426820       0.021875
                                                         4.590809       0.000000
                                                        23.194561       0.000000
                          1       4    3pz               0.109280       0.062233
                                                         0.155613       0.035668
                                                         0.238409       0.015304
                                                         0.548949      -0.003054
                                                         1.426820       0.021875
                                                         4.590809       0.000000
                                                        23.194561       0.000000

                          1       5    3dx2              0.109280       0.000986
                                                         0.155613       0.002022
                                                         0.238409       0.109458
                                                         0.548949       0.095099
                                                         1.426820       0.028232
                                                         4.590809       0.000000
                                                        23.194561       0.000000
                          1       5    3dxy              0.109280       0.001708
                                                         0.155613       0.003503
                                                         0.238409       0.189586
                                                         0.548949       0.164717
                                                         1.426820       0.048900
                                                         4.590809       0.000000
                                                        23.194561       0.000000
                          1       5    3dxz              0.109280       0.001708
                                                         0.155613       0.003503
                                                         0.238409       0.189586
                                                         0.548949       0.164717
                                                         1.426820       0.048900
                                                         4.590809       0.000000
                                                        23.194561       0.000000
                          1       5    3dy2              0.109280       0.000986
                                                         0.155613       0.002022
                                                         0.238409       0.109458
                                                         0.548949       0.095099
                                                         1.426820       0.028232
                                                         4.590809       0.000000
                                                        23.194561       0.000000
                          1       5    3dyz              0.109280       0.001708
                                                         0.155613       0.003503
                                                         0.238409       0.189586
                                                         0.548949       0.164717
                                                         1.426820       0.048900
                                                         4.590809       0.000000
                                                        23.194561       0.000000
                          1       5    3dz2              0.109280       0.000986
                                                         0.155613       0.002022
                                                         0.238409       0.109458
                                                         0.548949       0.095099
                                                         1.426820       0.028232
                                                         4.590809       0.000000
                                                        23.194561       0.000000

                          2       1    1s              506.011837       0.696781
                                                        92.776716       1.051665
                                                        25.955582       1.381280
                                                         8.916443       1.362748
                                                         3.462516       0.753460
                                                         1.426055       0.121219

     RI Auxiliary Basis Set             RI_aug-SZV-MOLOPT-ae_N_RI_032_s_p_d_f_g_

       Number of orbital shell sets:                                          12
       Number of orbital shells:                                              12
       Number of primitive Cartesian functions:                               12
       Number of Cartesian basis functions:                                   37
       Number of spherical basis functions:                                   32
       Norm type:                                                              2

       Normalised Cartesian orbitals:

                        Set   Shell   Orbital            Exponent    Coefficient

                          1       1    1s                0.209619       0.220792

                          2       1    7px               0.279173       0.289256
                          2       1    7py               0.279173       0.289256
                          2       1    7pz               0.279173       0.289256

                          3       1   10dx2              0.438607       0.389083
                          3       1   10dxy              0.438607       0.673912
                          3       1   10dxz              0.438607       0.673912
                          3       1   10dy2              0.438607       0.389083
                          3       1   10dyz              0.438607       0.673912
                          3       1   10dz2              0.438607       0.389083

                          4       1   12fx3              0.550449       0.384210
                          4       1   12fx2y             0.550449       0.859120
                          4       1   12fx2z             0.550449       0.859120
                          4       1   12fxy2             0.550449       0.859120
                          4       1   12fxyz             0.550449       1.488039
                          4       1   12fxz2             0.550449       0.859120
                          4       1   12fy3              0.550449       0.384210
                          4       1   12fy2z             0.550449       0.859120
                          4       1   12fyz2             0.550449       0.859120
                          4       1   12fz3              0.550449       0.384210

                          5       1    2s                0.618189       0.496879

                          6       1    8px               0.759703       1.010986
                          6       1    8py               0.759703       1.010986
                          6       1    8pz               0.759703       1.010986

                          7       1    3s                1.823121       1.118206

                          8       1   11dx2              2.272834       6.924734
                          8       1   11dxy              2.272834      11.993991
                          8       1   11dxz              2.272834      11.993991
                          8       1   11dy2              2.272834       6.924734
                          8       1   11dyz              2.272834      11.993991
                          8       1   11dz2              2.272834       6.924734

                          9       1    4s                5.376710       2.516504

                         10       1    9px               8.010416      19.209185
                         10       1    9py               8.010416      19.209185
                         10       1    9pz               8.010416      19.209185

                         11       1    5s               15.856825       5.663335

                         12       1    6s               46.764327      12.745184

       Atomic covalent radius [Angstrom]:                                  0.820

       Atomic van der Waals radius [Angstrom]:                             1.920

     The atoms of this atomic kind are PAW atoms (GAPW):
       Hard Gaussian function radius:                                      1.512
       Rho0 radius:                                                        1.512
       Maximum GTO radius used for PAW projector construction:            24.566

     GAPW Soft Basis Set                                  aug-SZV-MOLOPT-ae_soft

       Number of orbital shell sets:                                           2
       Number of orbital shells:                                               6
       Number of primitive Cartesian functions:                                7
       Number of Cartesian basis functions:                                   15
       Number of spherical basis functions:                                   14
       Norm type:                                                              2

       Normalised Cartesian orbitals:

                        Set   Shell   Orbital            Exponent    Coefficient

                          1       1    1s                0.109280       0.032606
                                                         0.155613       0.000000
                                                         0.238409       0.144712
                                                         0.548949       0.113742
                                                         1.426820      -0.031435

                          1       2    2s                0.109280      -0.049098
                                                         0.155613      -0.119813
                                                         0.238409      -0.025283
                                                         0.548949       0.056653
                                                         1.426820       0.132404

                          1       3    2px               0.109280       0.009109
                                                         0.155613       0.000000
                                                         0.238409       0.101125
                                                         0.548949       0.281559
                                                         1.426820       0.386539
                          1       3    2py               0.109280       0.009109
                                                         0.155613       0.000000
                                                         0.238409       0.101125
                                                         0.548949       0.281559
                                                         1.426820       0.386539
                          1       3    2pz               0.109280       0.009109
                                                         0.155613       0.000000
                                                         0.238409       0.101125
                                                         0.548949       0.281559
                                                         1.426820       0.386539

                          1       4    3px               0.109280       0.062233
                                                         0.155613       0.035668
                                                         0.238409       0.015304
                                                         0.548949      -0.003054
                                                         1.426820       0.021875
                          1       4    3py               0.109280       0.062233
                                                         0.155613       0.035668
                                                         0.238409       0.015304
                                                         0.548949      -0.003054
                                                         1.426820       0.021875
                          1       4    3pz               0.109280       0.062233
                                                         0.155613       0.035668
                                                         0.238409       0.015304
                                                         0.548949      -0.003054
                                                         1.426820       0.021875

                          1       5    3dx2              0.109280       0.000986
                                                         0.155613       0.002022
                                                         0.238409       0.109458
                                                         0.548949       0.095099
                                                         1.426820       0.028232
                          1       5    3dxy              0.109280       0.001708
                                                         0.155613       0.003503
                                                         0.238409       0.189586
                                                         0.548949       0.164717
                                                         1.426820       0.048900
                          1       5    3dxz              0.109280       0.001708
                                                         0.155613       0.003503
                                                         0.238409       0.189586
                                                         0.548949       0.164717
                                                         1.426820       0.048900
                          1       5    3dy2              0.109280       0.000986
                                                         0.155613       0.002022
                                                         0.238409       0.109458
                                                         0.548949       0.095099
                                                         1.426820       0.028232
                          1       5    3dyz              0.109280       0.001708
                                                         0.155613       0.003503
                                                         0.238409       0.189586
                                                         0.548949       0.164717
                                                         1.426820       0.048900
                          1       5    3dz2              0.109280       0.000986
                                                         0.155613       0.002022
                                                         0.238409       0.109458
                                                         0.548949       0.095099
                                                         1.426820       0.028232

                          2       1    1s                3.462516       0.753460
                                                         1.426055       0.121219

     AE Potential information for                                            ALL

       Description:                                       All-electron potential
                                          Krack, Parrinello, PCCP 2, 2105 (2000)

       Gaussian exponent of the core charge distribution:               2.655410
       Electronic configuration (s p d ...):                           4   1   0

  2. Atomic kind: H                                     Number of atoms:       1

     Orbital Basis Set                                         aug-SZV-MOLOPT-ae

       Number of orbital shell sets:                                           1
       Number of orbital shells:                                               4
       Number of primitive Cartesian functions:                                7
       Number of Cartesian basis functions:                                    6
       Number of spherical basis functions:                                    6
       Norm type:                                                              2

       Normalised Cartesian orbitals:

                        Set   Shell   Orbital            Exponent    Coefficient

                          1       1    1s                0.065428       0.000000
                                                         0.100112       0.016532
                                                         0.243077       0.102760
                                                         0.625955       0.185857
                                                         1.822143       0.188385
                                                         6.513144       0.143430
                                                        35.523221       0.095030

                          1       2    2s                0.065428       0.083549
                                                         0.100112       0.009605
                                                         0.243077       0.002524
                                                         0.625955       0.013457
                                                         1.822143       0.000000
                                                         6.513144       0.000000
                                                        35.523221       0.000000

                          1       3    3s                0.065428       0.037407
                                                         0.100112      -0.169070
                                                         0.243077      -0.018899
                                                         0.625955       0.012806
                                                         1.822143       0.000000
                                                         6.513144       0.000000
                                                        35.523221       0.000000

                          1       4    2px               0.065428       0.059908
                                                         0.100112      -0.023770
                                                         0.243077       0.000032
                                                         0.625955       0.017779
                                                         1.822143       0.000000
                                                         6.513144       0.000000
                                                        35.523221       0.000000
                          1       4    2py               0.065428       0.059908
                                                         0.100112      -0.023770
                                                         0.243077       0.000032
                                                         0.625955       0.017779
                                                         1.822143       0.000000
                                                         6.513144       0.000000
                                                        35.523221       0.000000
                          1       4    2pz               0.065428       0.059908
                                                         0.100112      -0.023770
                                                         0.243077       0.000032
                                                         0.625955       0.017779
                                                         1.822143       0.000000
                                                         6.513144       0.000000
                                                        35.523221       0.000000

     RI Auxiliary Basis Set             RI_aug-SZV-MOLOPT-ae_N_RI_007_s_p_d_f_g_

       Number of orbital shell sets:                                           5
       Number of orbital shells:                                               5
       Number of primitive Cartesian functions:                                5
       Number of Cartesian basis functions:                                    7
       Number of spherical basis functions:                                    7
       Norm type:                                                              2

       Normalised Cartesian orbitals:

                        Set   Shell   Orbital            Exponent    Coefficient

                          1       1    1s                0.148777       0.170731

                          2       1    5px               0.367452       0.407794
                          2       1    5py               0.367452       0.407794
                          2       1    5pz               0.367452       0.407794

                          3       1    2s                0.510503       0.430437

                          4       1    3s                1.106366       0.768837

                          5       1    4s                5.955292       2.716986

       Atomic covalent radius [Angstrom]:                                  0.320

       Atomic van der Waals radius [Angstrom]:                             1.090

     The atoms of this atomic kind are PAW atoms (GAPW):
       Hard Gaussian function radius:                                      1.200
       Rho0 radius:                                                        1.200
       Maximum GTO radius used for PAW projector construction:            24.566

     GAPW Soft Basis Set                                  aug-SZV-MOLOPT-ae_soft

       Number of orbital shell sets:                                           1
       Number of orbital shells:                                               4
       Number of primitive Cartesian functions:                                6
       Number of Cartesian basis functions:                                    6
       Number of spherical basis functions:                                    6
       Norm type:                                                              2

       Normalised Cartesian orbitals:

                        Set   Shell   Orbital            Exponent    Coefficient

                          1       1    1s                0.065428       0.000000
                                                         0.100112       0.016532
                                                         0.243077       0.102760
                                                         0.625955       0.185857
                                                         1.822143       0.188385
                                                         6.513144       0.000000

                          1       2    2s                0.065428       0.083549
                                                         0.100112       0.009605
                                                         0.243077       0.002524
                                                         0.625955       0.013457
                                                         1.822143       0.000000
                                                         6.513144       0.000000

                          1       3    3s                0.065428       0.037407
                                                         0.100112      -0.169070
                                                         0.243077      -0.018899
                                                         0.625955       0.012806
                                                         1.822143       0.000000
                                                         6.513144       0.000000

                          1       4    2px               0.065428       0.059908
                                                         0.100112      -0.023770
                                                         0.243077       0.000032
                                                         0.625955       0.017779
                                                         1.822143       0.000000
                                                         6.513144       0.000000
                          1       4    2py               0.065428       0.059908
                                                         0.100112      -0.023770
                                                         0.243077       0.000032
                                                         0.625955       0.017779
                                                         1.822143       0.000000
                                                         6.513144       0.000000
                          1       4    2pz               0.065428       0.059908
                                                         0.100112      -0.023770
                                                         0.243077       0.000032
                                                         0.625955       0.017779
                                                         1.822143       0.000000
                                                         6.513144       0.000000

     AE Potential information for                                            ALL

       Description:                                       All-electron potential
                                          Krack, Parrinello, PCCP 2, 2105 (2000)

       Gaussian exponent of the core charge distribution:              12.500000
       Electronic configuration (s p d ...):                           1   0   0


 MOLECULE KIND INFORMATION


 All atoms are their own molecule, skipping detailed information


 TOTAL NUMBERS AND MAXIMUM NUMBERS

  Total number of            - Atomic kinds:                                   2
                             - Atoms:                                          2
                             - Shell sets:                                     3
                             - Shells:                                        10
                             - Primitive Cartesian functions:                 20
                             - Cartesian basis functions:                     21
                             - Spherical basis functions:                     20

  Maximum angular momentum of the orbital basis functions:                     2


 MODULE QUICKSTEP: ATOMIC COORDINATES IN ANGSTROM

   Atom Kind Element         X             Y             Z       Z(eff)     Mass
      1    1 B     5     15.616628     15.000000     15.000000   5.0000  10.8110
      2    2 H     1     14.383372     15.000000     15.000000   1.0000   1.0079



 SCF PARAMETERS         Density guess:                                    ATOMIC
                        --------------------------------------------------------
                        max_scf:                                             500
                        max_scf_history:                                       0
                        max_diis:                                              4
                        --------------------------------------------------------
                        eps_scf:                                        1.00E-06
                        eps_scf_history:                                0.00E+00
                        eps_diis:                                       1.00E-01
                        eps_eigval:                                     1.00E-05
                        --------------------------------------------------------
                        level_shift [a.u.]:                             0.000000
                        added MOs                                        17    0
                        --------------------------------------------------------
                        Mixing method:                            BROYDEN_MIXING
                                                charge density mixing in g-space
                        --------------------------------------------------------
                        No outer SCF

 PW_GRID| Information for grid number                                          1
 PW_GRID| Grid distributed over                                    24 processors
 PW_GRID| Real space group dimensions                                    24    1
 PW_GRID| the grid is blocked:                                                NO
 PW_GRID| Cutoff [a.u.]                                                    250.0
 PW_GRID| spherical cutoff:                                                   NO
 PW_GRID|   Bounds   1           -202     202                Points:         405
 PW_GRID|   Bounds   2           -202     202                Points:         405
 PW_GRID|   Bounds   3           -202     202                Points:         405
 PW_GRID| Volume element (a.u.^3)  0.2743E-02     Volume (a.u.^3)    182205.0337
 PW_GRID| Grid span                                                    FULLSPACE
 PW_GRID|   Distribution                         Average         Max         Min
 PW_GRID|   G-Vectors                          2767921.9     2768175     2767770
 PW_GRID|   G-Rays                                6834.4        6835        6834
 PW_GRID|   Real Space Points                  2767921.9     2788425     2624400

 PW_GRID| Information for grid number                                          2
 PW_GRID| Number of the reference grid                                         1
 PW_GRID| Grid distributed over                                    24 processors
 PW_GRID| Real space group dimensions                                    24    1
 PW_GRID| the grid is blocked:                                                NO
 PW_GRID| Cutoff [a.u.]                                                     83.3
 PW_GRID| spherical cutoff:                                                   NO
 PW_GRID|   Bounds   1           -120     119                Points:         240
 PW_GRID|   Bounds   2           -120     119                Points:         240
 PW_GRID|   Bounds   3           -120     119                Points:         240
 PW_GRID| Volume element (a.u.^3)  0.1318E-01     Volume (a.u.^3)    182205.0337
 PW_GRID| Grid span                                                    FULLSPACE
 PW_GRID|   Distribution                         Average         Max         Min
 PW_GRID|   G-Vectors                           576000.0      576240      575760
 PW_GRID|   G-Rays                                2400.0        2401        2399
 PW_GRID|   Real Space Points                   576000.0      576000      576000

 PW_GRID| Information for grid number                                          3
 PW_GRID| Number of the reference grid                                         1
 PW_GRID| Grid distributed over                                    24 processors
 PW_GRID| Real space group dimensions                                    24    1
 PW_GRID| the grid is blocked:                                                NO
 PW_GRID| Cutoff [a.u.]                                                     27.8
 PW_GRID| spherical cutoff:                                                   NO
 PW_GRID|   Bounds   1            -67      67                Points:         135
 PW_GRID|   Bounds   2            -67      67                Points:         135
 PW_GRID|   Bounds   3            -67      67                Points:         135
 PW_GRID| Volume element (a.u.^3)  0.7406E-01     Volume (a.u.^3)    182205.0337
 PW_GRID| Grid span                                                    FULLSPACE
 PW_GRID|   Distribution                         Average         Max         Min
 PW_GRID|   G-Vectors                           102515.6      102735      102330
 PW_GRID|   G-Rays                                 759.4         761         758
 PW_GRID|   Real Space Points                   102515.6      109350       91125

 PW_GRID| Information for grid number                                          4
 PW_GRID| Number of the reference grid                                         1
 PW_GRID| Grid distributed over                                    24 processors
 PW_GRID| Real space group dimensions                                    24    1
 PW_GRID| the grid is blocked:                                                NO
 PW_GRID| Cutoff [a.u.]                                                      9.3
 PW_GRID| spherical cutoff:                                                   NO
 PW_GRID|   Bounds   1            -40      39                Points:          80
 PW_GRID|   Bounds   2            -40      39                Points:          80
 PW_GRID|   Bounds   3            -40      39                Points:          80
 PW_GRID| Volume element (a.u.^3)  0.3559         Volume (a.u.^3)    182205.0337
 PW_GRID| Grid span                                                    FULLSPACE
 PW_GRID|   Distribution                         Average         Max         Min
 PW_GRID|   G-Vectors                            21333.3       21360       21280
 PW_GRID|   G-Rays                                 266.7         267         266
 PW_GRID|   Real Space Points                    21333.3       25600       19200

 POISSON| Solver                                                         WAVELET
 POISSON| Wavelet| Scaling function                                           40
 POISSON| Periodicity                                                       NONE

 RS_GRID| Information for grid number                                          1
 RS_GRID|   Bounds   1           -202     202                Points:         405
 RS_GRID|   Bounds   2           -202     202                Points:         405
 RS_GRID|   Bounds   3           -202     202                Points:         405
 RS_GRID| Real space distribution over                                  4 groups
 RS_GRID| Real space distribution along direction                              2
 RS_GRID| Border size                                                         34
 RS_GRID| Real space distribution over                                  6 groups
 RS_GRID| Real space distribution along direction                              3
 RS_GRID| Border size                                                         34
 RS_GRID|   Distribution                         Average         Max         Min
 RS_GRID|   Planes                                 169.2         170         169
 RS_GRID|   Distribution                         Average         Max         Min
 RS_GRID|   Planes                                 135.5         136         135

 RS_GRID| Information for grid number                                          2
 RS_GRID|   Bounds   1           -120     119                Points:         240
 RS_GRID|   Bounds   2           -120     119                Points:         240
 RS_GRID|   Bounds   3           -120     119                Points:         240
 RS_GRID| Real space distribution over                                  4 groups
 RS_GRID| Real space distribution along direction                              2
 RS_GRID| Border size                                                         35
 RS_GRID| Real space distribution over                                  6 groups
 RS_GRID| Real space distribution along direction                              3
 RS_GRID| Border size                                                         35
 RS_GRID|   Distribution                         Average         Max         Min
 RS_GRID|   Planes                                 130.0         130         130
 RS_GRID|   Distribution                         Average         Max         Min
 RS_GRID|   Planes                                 110.0         110         110

 RS_GRID| Information for grid number                                          3
 RS_GRID|   Bounds   1            -67      67                Points:         135
 RS_GRID|   Bounds   2            -67      67                Points:         135
 RS_GRID|   Bounds   3            -67      67                Points:         135
 RS_GRID| Real space fully replicated
 RS_GRID| Group size                                                           1

 RS_GRID| Information for grid number                                          4
 RS_GRID|   Bounds   1            -40      39                Points:          80
 RS_GRID|   Bounds   2            -40      39                Points:          80
 RS_GRID|   Bounds   3            -40      39                Points:          80
 RS_GRID| Real space fully replicated
 RS_GRID| Group size                                                           1

  HFX_INFO| Replica ID:                                                        1
  HFX_INFO| FRACTION:                                               0.2500000000
  HFX_INFO| Interaction Potential:                                       COULOMB
  HFX_INFO| EPS_SCHWARZ:                                                 1.0E-10
  HFX_INFO| EPS_SCHWARZ_FORCES                                           1.0E-08
  HFX_INFO| EPS_STORAGE_SCALING:                                         1.0E+00
  HFX_INFO| NBINS:                                                            64
  HFX_INFO| BLOCK_SIZE:                                                        1
  HFX_INFO| Number of periodic shells considered:                           NONE
  HFX_INFO| Number of periodic cells considered:                            NONE

 
 RI-RPA| using GPW style
 

 OVERLAP MATRIX CONDITION NUMBER
 1-Norm Condition Number (Estimate)
   CN : |A|*|A^-1|:  5.382E+000 *  7.055E+001   = 3.797E+002  Log(1-CN):  2.5794
 1-Norm and 2-Norm Condition Numbers using Diagonalization
   CN : |A|*|A^-1|:  5.382E+000 *  7.645E+001   = 4.114E+002  Log(1-CN):  2.6143
   CN : max/min ev:  4.197E+000 /  2.093E-002   = 2.005E+002  Log(2-CN):  2.3021

 Number of electrons:                                                          6
 Number of occupied orbitals:                                                  3
 Number of molecular orbitals:                                                20

 Number of orbital functions:                                                 20
 Number of independent orbital functions:                                     20

 Extrapolation method: initial_guess

 Atomic guess: The first density matrix is obtained in terms of atomic orbitals
               and electronic configurations assigned to each atomic kind

 Guess for atomic kind: B

 Electronic structure
    Total number of core electrons                                          0.00
    Total number of valence electrons                                       5.00
    Total number of electrons                                               5.00
    Multiplicity                                                   not specified
    S      2.00  2.00
    P      1.00


 *******************************************************************************
                  Iteration          Convergence                     Energy [au]
 *******************************************************************************
                          1        0.612489E-01                 -24.304439508901
                          2        0.220484E-01                 -24.305945213911
                          3        0.367076E-03                 -24.306247196960
                          4        0.456899E-05                 -24.306247340970
                          5        0.241868E-07                 -24.306247340986

 Energy components [Hartree]           Total Energy ::          -24.306247340986
                                        Band Energy ::          -13.825803348850
                                     Kinetic Energy ::           23.970530113188
                                   Potential Energy ::          -48.276777454174
                                      Virial (-V/T) ::            2.014005415242
                                        Core Energy ::          -32.361048727638
                                          XC Energy ::           -3.546375173816
                                     Coulomb Energy ::           11.601176560468

 Orbital energies  State     L     Occupation   Energy[a.u.]          Energy[eV]

                       1     0          2.000      -6.531739         -177.737651
                       2     0          2.000      -0.324835           -8.839199

                       1     1          1.000      -0.112657           -3.065543


 Total Electron Density at R=0:                                        58.671969

 Guess for atomic kind: H

 Electronic structure
    Total number of core electrons                                          0.00
    Total number of valence electrons                                       1.00
    Total number of electrons                                               1.00
    Multiplicity                                                   not specified
    S      1.00


 *******************************************************************************
                  Iteration          Convergence                     Energy [au]
 *******************************************************************************
                          1        0.962691E-02                  -0.444368661081
                          2        0.109107E-02                  -0.444473520424
                          3        0.117094E-03                  -0.444476577889
                          4        0.851579E-07                  -0.444476596085

 Energy components [Hartree]           Total Energy ::           -0.444476596085
                                        Band Energy ::           -0.233451424826
                                     Kinetic Energy ::            0.431260327433
                                   Potential Energy ::           -0.875736923518
                                      Virial (-V/T) ::            2.030645686170
                                        Core Energy ::           -0.494218917327
                                          XC Energy ::           -0.231476335377
                                     Coulomb Energy ::            0.281218656618

 Orbital energies  State     L     Occupation   Energy[a.u.]          Energy[eV]

                       1     0          1.000      -0.233451           -6.352536


 Total Electron Density at R=0:                                         0.270947
 Re-scaling the density matrix to get the right number of electrons
                  # Electrons              Trace(P)               Scaling factor
                            6                 6.000                        1.000


 SCF WAVEFUNCTION OPTIMIZATION

  Step     Update method      Time    Convergence         Total energy    Change
  ------------------------------------------------------------------------------

  HFX_MEM_INFO| Est. max. program size before HFX [MiB]:                    2142
  HFX_MEM_INFO| Number of cart. primitive ERI's calculated:             55755292
  HFX_MEM_INFO| Number of sph. ERI's calculated:                           73312
  HFX_MEM_INFO| Number of sph. ERI's stored in-core:                       73312
  HFX_MEM_INFO| Number of sph. ERI's stored on disk:                           0
  HFX_MEM_INFO| Number of sph. ERI's calculated on the fly:                    0
  HFX_MEM_INFO| Total memory consumption ERI's RAM [MiB]:                      1
  HFX_MEM_INFO| Whereof max-vals [MiB]:                                        1
  HFX_MEM_INFO| Total compression factor ERI's RAM:                         0.56
  HFX_MEM_INFO| Total memory consumption ERI's disk [MiB]:                     0
  HFX_MEM_INFO| Total compression factor ERI's disk:                        0.00
  HFX_MEM_INFO| Size of density/Fock matrix [MiB]:                             0
  HFX_MEM_INFO| Size of buffers [MiB]:                                         0
  HFX_MEM_INFO| Est. max. program size after HFX  [MiB]:                    2656

     1 NoMix/Diag. 0.10E+00    8.3     0.49458443       -25.1397435807 -2.51E+01
     2 Broy./Diag. 0.10E+00    4.7     0.06276869       -25.0469588684  9.28E-02
     3 Broy./Diag. 0.10E+00    5.0     0.09145408       -24.8863710752  1.61E-01
     4 Broy./Diag. 0.10E+00    4.8     0.19227858       -25.0954646591 -2.09E-01
     5 Broy./Diag. 0.10E+00    4.8     0.02563131       -25.1362363768 -4.08E-02
     6 Broy./Diag. 0.10E+00    5.0     0.00845868       -25.1321799654  4.06E-03
     7 Broy./Diag. 0.10E+00    5.0     0.02426300       -25.1687998775 -3.66E-02
     8 Broy./Diag. 0.10E+00    5.1     0.00607487       -25.1919734830 -2.32E-02
     9 Broy./Diag. 0.10E+00    5.3     0.00999305       -25.2071481014 -1.52E-02
    10 Broy./Diag. 0.10E+00    5.3     0.00677206       -25.2180250616 -1.09E-02
    11 Broy./Diag. 0.10E+00    5.3     0.00238362       -25.2219723300 -3.95E-03
    12 Broy./Diag. 0.10E+00    5.4     0.00233736       -25.2171898433  4.78E-03
    13 Broy./Diag. 0.10E+00    5.3     0.00198124       -25.2141662916  3.02E-03
    14 Broy./Diag. 0.10E+00    5.3     0.00035220       -25.2155686545 -1.40E-03
    15 Broy./Diag. 0.10E+00    5.3     0.00168329       -25.2161530330 -5.84E-04
    16 Broy./Diag. 0.10E+00    5.3     0.00067463       -25.2154734154  6.80E-04
    17 Broy./Diag. 0.10E+00    5.3     0.00020919       -25.2158378240 -3.64E-04
    18 Broy./Diag. 0.10E+00    5.3     0.00054775       -25.2153952889  4.43E-04
    19 Broy./Diag. 0.10E+00    5.3     0.00021881       -25.2153046167  9.07E-05
    20 Broy./Diag. 0.10E+00    5.3     0.00042119       -25.2153832340 -7.86E-05
    21 Broy./Diag. 0.10E+00    5.3     0.00111019       -25.2152801600  1.03E-04
    22 Broy./Diag. 0.10E+00    5.3     0.00051688       -25.2151685383  1.12E-04
    23 Broy./Diag. 0.10E+00    5.3     0.00011294       -25.2150462340  1.22E-04
    24 Broy./Diag. 0.10E+00    5.3     0.00031343       -25.2147169390  3.29E-04
    25 Broy./Diag. 0.10E+00    5.4     0.00006367       -25.2146042142  1.13E-04
    26 Broy./Diag. 0.10E+00    5.3     0.00004428       -25.2146748493 -7.06E-05
    27 Broy./Diag. 0.10E+00    5.3     0.00004987       -25.2147623243 -8.75E-05
    28 Broy./Diag. 0.10E+00    5.4     0.00002517       -25.2147537120  8.61E-06
    29 Broy./Diag. 0.10E+00    5.3     0.00012553       -25.2147246553  2.91E-05
    30 Broy./Diag. 0.10E+00    5.4     0.00036066       -25.2146904598  3.42E-05
    31 Broy./Diag. 0.10E+00    5.4     0.00004086       -25.2146770364  1.34E-05
    32 Broy./Diag. 0.10E+00    5.3     0.00003172       -25.2146233797  5.37E-05
    33 Broy./Diag. 0.10E+00    5.4     0.00001218       -25.2146031927  2.02E-05
    34 Broy./Diag. 0.10E+00    5.3     0.00001005       -25.2145750789  2.81E-05
    35 Broy./Diag. 0.10E+00    5.4     0.00001081       -25.2145505456  2.45E-05
    36 Broy./Diag. 0.10E+00    5.3     0.00001038       -25.2145227041  2.78E-05
    37 Broy./Diag. 0.10E+00    5.3     0.00000494       -25.2145111812  1.15E-05
    38 Broy./Diag. 0.10E+00    5.4     0.00000842       -25.2145081548  3.03E-06
    39 Broy./Diag. 0.10E+00    5.3     0.00000594       -25.2145041448  4.01E-06
    40 Broy./Diag. 0.10E+00    5.3     0.00000318       -25.2144995416  4.60E-06
    41 Broy./Diag. 0.10E+00    5.4     0.00001164       -25.2145003466 -8.05E-07
    42 Broy./Diag. 0.10E+00    5.3     0.00000502       -25.2145051829 -4.84E-06
    43 Broy./Diag. 0.10E+00    5.3     0.00000153       -25.2145120442 -6.86E-06
    44 Broy./Diag. 0.10E+00    5.3     0.00000064       -25.2145141785 -2.13E-06

  *** SCF run converged in    44 steps ***


  Electronic density on regular grids:         -4.5356145207        1.4643854793
  Core density on regular grids:                6.0000000000       -0.0000000000
  Hard and soft densities (Lebedev):          -10.7570286860       -9.2926325812
  Total Rho_soft + Rho1_hard - Rho1_soft       -6.0000106255
  Total charge density (r-space):              -0.0000106255
  Total Rho_soft + Rho0_soft (g-space):        -0.0000106359

  Overlap energy of the core charge distribution:               0.00000230416181
  Self energy of the core charge distribution:                -17.66281176767632
  Core Hamiltonian energy:                                     -6.23673869540707
  Hartree energy:                                               8.89881593856955
  Exchange-correlation energy:                                 -1.25327694384855
  Hartree-Fock Exchange energy:                                -1.02880982088199

  GAPW| Exc from hard and soft atomic rho1:                    -1.95072938377915
  GAPW| local Eh = 1 center integrals:                         -5.98096580965066

  Total energy:                                               -25.21451417851237

 !-----------------------------------------------------------------------------!
                     Mulliken Population Analysis

 #  Atom  Element  Kind  Atomic population                           Net charge
       1     B        1          5.055415                             -0.055415
       2     H        2          0.944585                              0.055415
 # Total charge                              6.000000                  0.000000

 !-----------------------------------------------------------------------------!

 !-----------------------------------------------------------------------------!
                           Hirshfeld Charges

  #Atom  Element  Kind  Ref Charge     Population                    Net charge
      1       B      1       5.000          5.410                        -0.410
      2       H      2       1.000          0.581                         0.419

  Total Charge                                                            0.009
 !-----------------------------------------------------------------------------!


 RI-RPA section
 --------------

  Used number of processes per group:                                          1
  Maximum allowed memory usage per MPI process:                      1024.00 MiB
  RI_INFO| Cholesky decomposition group size:                                  2
  RI_INFO| Number of groups for auxiliary basis functions                     24

  RI_INFO| RI metric:                                                    COULOMB
  RI_INFO| Number of auxiliary basis functions:                               39
  GENERAL_INFO| Number of basis functions:                                    20
  GENERAL_INFO| Number of occupied orbitals:                                   3
  GENERAL_INFO| Number of virtual orbitals:                                   17
  RI_INFO| Total memory for (ia|K) integrals:                           0.02 MiB
  RI_INFO| Total memory for G0W0-(nm|K) integrals:                      0.12 MiB
  RI_INFO| Total memory for (ij|K) integrals:                           0.00 MiB
  RI_INFO| Total memory for (ab|K) integrals:                           0.09 MiB
  RI_INFO| Group size for frequency integration:                              24
  INTEG_INFO| Clenshaw-Curtius quadrature
  INTEG_INFO| Number of integration points:                                  100
  INTEG_INFO| Number of integration points per RPA group:                    100
  MATRIX_INFO| Number row processes:                                           6
  MATRIX_INFO| Number column processes:                                        4
  MATRIX_INFO| Row block size:                                                 3
  MATRIX_INFO| Column block size:                                              6
  INTEG_INFO| Scaling parameter:                                         0.20000
  INTEG_INFO| Started with Integration point   1 of 100
  INTEG_INFO| Started with Integration point   2 of 100
  INTEG_INFO| Started with Integration point   3 of 100
  INTEG_INFO| Started with Integration point   4 of 100
  INTEG_INFO| Started with Integration point   5 of 100
  INTEG_INFO| Started with Integration point   6 of 100
  INTEG_INFO| Started with Integration point   7 of 100
  INTEG_INFO| Started with Integration point   8 of 100
  INTEG_INFO| Started with Integration point   9 of 100
  INTEG_INFO| Started with Integration point  10 of 100
  INTEG_INFO| Started with Integration point  11 of 100
  INTEG_INFO| Started with Integration point  12 of 100
  INTEG_INFO| Started with Integration point  13 of 100
  INTEG_INFO| Started with Integration point  14 of 100
  INTEG_INFO| Started with Integration point  15 of 100
  INTEG_INFO| Started with Integration point  16 of 100
  INTEG_INFO| Started with Integration point  17 of 100
  INTEG_INFO| Started with Integration point  18 of 100
  INTEG_INFO| Started with Integration point  19 of 100
  INTEG_INFO| Started with Integration point  20 of 100
  INTEG_INFO| Started with Integration point  21 of 100
  INTEG_INFO| Started with Integration point  22 of 100
  INTEG_INFO| Started with Integration point  23 of 100
  INTEG_INFO| Started with Integration point  24 of 100
  INTEG_INFO| Started with Integration point  25 of 100
  INTEG_INFO| Started with Integration point  26 of 100
  INTEG_INFO| Started with Integration point  27 of 100
  INTEG_INFO| Started with Integration point  28 of 100
  INTEG_INFO| Started with Integration point  29 of 100
  INTEG_INFO| Started with Integration point  30 of 100
  INTEG_INFO| Started with Integration point  31 of 100
  INTEG_INFO| Started with Integration point  32 of 100
  INTEG_INFO| Started with Integration point  33 of 100
  INTEG_INFO| Started with Integration point  34 of 100
  INTEG_INFO| Started with Integration point  35 of 100
  INTEG_INFO| Started with Integration point  36 of 100
  INTEG_INFO| Started with Integration point  37 of 100
  INTEG_INFO| Started with Integration point  38 of 100
  INTEG_INFO| Started with Integration point  39 of 100
  INTEG_INFO| Started with Integration point  40 of 100
  INTEG_INFO| Started with Integration point  41 of 100
  INTEG_INFO| Started with Integration point  42 of 100
  INTEG_INFO| Started with Integration point  43 of 100
  INTEG_INFO| Started with Integration point  44 of 100
  INTEG_INFO| Started with Integration point  45 of 100
  INTEG_INFO| Started with Integration point  46 of 100
  INTEG_INFO| Started with Integration point  47 of 100
  INTEG_INFO| Started with Integration point  48 of 100
  INTEG_INFO| Started with Integration point  49 of 100
  INTEG_INFO| Started with Integration point  50 of 100
  INTEG_INFO| Started with Integration point  51 of 100
  INTEG_INFO| Started with Integration point  52 of 100
  INTEG_INFO| Started with Integration point  53 of 100
  INTEG_INFO| Started with Integration point  54 of 100
  INTEG_INFO| Started with Integration point  55 of 100
  INTEG_INFO| Started with Integration point  56 of 100
  INTEG_INFO| Started with Integration point  57 of 100
  INTEG_INFO| Started with Integration point  58 of 100
  INTEG_INFO| Started with Integration point  59 of 100
  INTEG_INFO| Started with Integration point  60 of 100
  INTEG_INFO| Started with Integration point  61 of 100
  INTEG_INFO| Started with Integration point  62 of 100
  INTEG_INFO| Started with Integration point  63 of 100
  INTEG_INFO| Started with Integration point  64 of 100
  INTEG_INFO| Started with Integration point  65 of 100
  INTEG_INFO| Started with Integration point  66 of 100
  INTEG_INFO| Started with Integration point  67 of 100
  INTEG_INFO| Started with Integration point  68 of 100
  INTEG_INFO| Started with Integration point  69 of 100
  INTEG_INFO| Started with Integration point  70 of 100
  INTEG_INFO| Started with Integration point  71 of 100
  INTEG_INFO| Started with Integration point  72 of 100
  INTEG_INFO| Started with Integration point  73 of 100
  INTEG_INFO| Started with Integration point  74 of 100
  INTEG_INFO| Started with Integration point  75 of 100
  INTEG_INFO| Started with Integration point  76 of 100
  INTEG_INFO| Started with Integration point  77 of 100
  INTEG_INFO| Started with Integration point  78 of 100
  INTEG_INFO| Started with Integration point  79 of 100
  INTEG_INFO| Started with Integration point  80 of 100
  INTEG_INFO| Started with Integration point  81 of 100
  INTEG_INFO| Started with Integration point  82 of 100
  INTEG_INFO| Started with Integration point  83 of 100
  INTEG_INFO| Started with Integration point  84 of 100
  INTEG_INFO| Started with Integration point  85 of 100
  INTEG_INFO| Started with Integration point  86 of 100
  INTEG_INFO| Started with Integration point  87 of 100
  INTEG_INFO| Started with Integration point  88 of 100
  INTEG_INFO| Started with Integration point  89 of 100
  INTEG_INFO| Started with Integration point  90 of 100
  INTEG_INFO| Started with Integration point  91 of 100
  INTEG_INFO| Started with Integration point  92 of 100
  INTEG_INFO| Started with Integration point  93 of 100
  INTEG_INFO| Started with Integration point  94 of 100
  INTEG_INFO| Started with Integration point  95 of 100
  INTEG_INFO| Started with Integration point  96 of 100
  INTEG_INFO| Started with Integration point  97 of 100
  INTEG_INFO| Started with Integration point  98 of 100
  INTEG_INFO| Started with Integration point  99 of 100
  INTEG_INFO| Started with Integration point 100 of 100
  PERFORMANCE| Average DGEMM flop rate (Gflops / MPI rank):                 0.01
  
  
  ******************************************************************************
  **                                                                          **
  **                        GW QUASIPARTICLE ENERGIES                         **
  **                                                                          **
  ******************************************************************************
   
   
  The GW quasiparticle energies are calculated according to: 
   
                      E_GW = E_SCF + Sigc(E_GW) + Sigx - vxc 
   
  Upper equation is solved self-consistently for E_GW, see Eq. (12) in J. Phys.
  Chem. Lett. 9, 306 (2018), doi: 10.1021/acs.jpclett.7b02740
  
  
  ------------
  G0W0 results
  ------------
   
  Molecular orbital   E_SCF (eV)       Sigc (eV)   Sigx-vxc (eV)       E_GW (eV)
     1 ( occ )         -187.2696         18.1481        -21.4532       -190.5748
     2 ( occ )          -13.5087          1.0959         -3.9078        -16.3207
     3 ( occ )           -6.5362          0.1163         -2.7012         -9.1211
     4 ( vir )           -2.1974         -1.2958          4.1810          0.6878
     5 ( vir )           -2.1974         -1.2958          4.1810          0.6878
     6 ( vir )            1.3747         -0.3108          1.7067          2.7706
     7 ( vir )            3.2119         -0.5254          1.9893          4.6759
     8 ( vir )            3.2119         -0.5254          1.9893          4.6759
     9 ( vir )            3.6965         -0.4139          2.1584          5.4410
    10 ( vir )            6.0148         -0.9887          3.2634          8.2895
    11 ( vir )           11.8553         -1.0370          4.2257         15.0440
    12 ( vir )           12.6280         -2.0895          4.9012         15.4397
    13 ( vir )           12.6280         -2.0891          4.9012         15.4402
    14 ( vir )           14.1674         -1.1066          4.7122         17.7729
    15 ( vir )           14.1674         -1.1068          4.7122         17.7727
    16 ( vir )           15.7761         -1.9163          4.8441         18.7039
    17 ( vir )           15.7761         -1.9159          4.8441         18.7044
    18 ( vir )           15.9812         -1.3735          4.7040         19.3117
    19 ( vir )           30.4203         -4.4834          6.5158         32.4527
    20 ( vir )           43.6603          1.9287          7.1411         52.7302
   
  G0W0 HOMO-LUMO gap (eV)                                                 9.8090
  
  ------------------------------------------------------------------------------
  
 *******************************************************************************
 **                                                                           **
 **           Bethe Salpeter equation (BSE) for excitation energies           **
[...]
 -                                                                             -
 -                           R E F E R E N C E S                               -
 -                                                                             -
 -------------------------------------------------------------------------------
 
 CP2K version 2025.1 (Development Version), the CP2K developers group (2025).
 CP2K is freely available from https://www.cp2k.org/ .
 
 T. D. Kuehne, M. Iannuzzi, M. Del Ben, V. V. Rybkin, P. Seewald, F. Stein, T. 
 Laino, R. Z. Khaliullin, O. Schuett, F. Schiffmann, D. Golze, J. Wilhelm, S. 
 Chulkov, M. H. Bani-Hashemian, V. Weber, U. Borstnik, M. Taillefumier, A. S. 
 Jakobovits, A. Lazzaro, H. Pabst, T. Mueller, R. Schade, M. Guidon, S. 
 Andermatt, N. Holmberg, G. K. Schenter, A. Hehn, A. Bussy, F. Belleflamme, G. 
 Tabacchi, A. Gloess, M. Lass, I. Bethune, C. J. Mundy, C. Plessl, M. Watkins, 
 J. VandeVondele, M. Krack, J. Hutter.
 J. Chem. Phys. 152, 194103 (2020).
 CP2K: An electronic structure and molecular dynamics software package - 
 Quickstep: Efficient and accurate electronic structure calculations.
 https://doi.org/10.1063/5.0007045

 J. Wilhelm, D. Golze, L. Talirz, J. Hutter, C. A. Pignedoli.
 J. Phys. Chem. Lett. 9, 306-312 (2018).
 Toward GW calculations on thousands of atoms.
 https://doi.org/10.1021/acs.jpclett.7b02740

 J. Wilhelm, J. Hutter.
 Phys. Rev. B 95, 235123 (2017).
 Periodic GW calculations in the Gaussian and plane-waves scheme.
 https://doi.org/10.1103/PhysRevB.95.235123

 O. Schuett, P. Messmer, J. Hutter, J. VandeVondele.
 Electronic Structure Calculations on Graphics Processing Units, 173-190 (2016).
 GPU-Accelerated Sparse Matrix-Matrix Multiplication for Linear Scaling Density 
 Functional Theory.
 https://doi.org/10.1002/9781118670712.ch8

 J. Wilhelm, M. Del Ben, J. Hutter.
 J. Chem. Theory Comput. 12, 3623-3635 (2016).
 GW in the Gaussian and plane waves scheme with application to linear acenes.
 https://doi.org/10.1021/acs.jctc.6b00380

 M. Del Ben, O. Schuett, T. Wentz, P. Messmer, J. Hutter, J. VandeVondele.
 Comput. Phys. Commun. 187, 120-129 (2015).
 Enabling simulation at the fifth rung of DFT: Large scale RPA calculations with 
 excellent time to solution.
 https://doi.org/10.1016/j.cpc.2014.10.021

 J. Hutter, M. Iannuzzi, F. Schiffmann, J. VandeVondele.
 WIREs Comput Mol Sci. 4, 15-25 (2014).
 CP2K: atomistic simulations of condensed matter systems.
 https://doi.org/10.1002/wcms.1159

 U. Borstnik, J. VandeVondele, V. Weber, J. Hutter.
 Parallel Comput. 40, 47-58 (2014).
 Sparse matrix multiplication: The distributed block-compressed sparse row 
 library.
 https://doi.org/10.1016/j.parco.2014.03.012

 M. Del Ben, J. Hutter, J. VandeVondele.
 J. Chem. Theory Comput. 9, 2654-2671 (2013).
 Electron Correlation in the Condensed Phase from a Resolution of Identity 
 Approach Based on the Gaussian and Plane Waves Scheme.
 https://doi.org/10.1021/ct4002202

 M. Del Ben, J. Hutter, J. VandeVondele.
 J. Chem. Theory Comput. 8, 4177-4188 (2012).
 Second-Order Moller-Plesset Perturbation Theory in the Condensed Phase: An 
 Efficient and Massively Parallel Gaussian and Plane Waves Approach.
 https://doi.org/10.1021/ct300531w

 M. Guidon, J. Hutter, J. VandeVondele.
 J. Chem. Theory Comput. 5, 3010-3021 (2009).
 Robust Periodic Hartree-Fock Exchange for Large-Scale Simulations Using 
 Gaussian Basis Sets.
 https://doi.org/10.1021/ct900494g

 M. Guidon, F. Schiffmann, J. Hutter, J. VandeVondele.
 J. Chem. Phys. 128, 214104 (2008).
 Ab initio molecular dynamics using hybrid density functionals.
 https://doi.org/10.1063/1.2931945

 L. Genovese, T. Deutsch, S. Goedecker.
 J. Chem. Phys. 127, 054704 (2007).
 Efficient and accurate three-dimensional Poisson solver for surface problems.
 https://doi.org/10.1063/1.2754685

 J. VandeVondele, J. Hutter.
 J. Chem. Phys. 127, 114105 (2007).
 Gaussian basis sets for accurate calculations on molecular systems in gas and 
 condensed phases.
 https://doi.org/10.1063/1.2770708

 L. Genovese, T. Deutsch, A. Neelov, S. Goedecker, G. Beylkin.
 J. Chem. Phys. 125, 074105 (2006).
 Efficient solution of Poisson's equation with free boundary conditions.
 https://doi.org/10.1063/1.2335442

 M. Frigo, S. G. Johnson.
 Proc. IEEE 93, 216-231 (2005).
 The design and implementation of FFTW3.
 https://doi.org/10.1109/JPROC.2004.840301

 M. Krack, M. Parrinello.
 Phys. Chem. Chem. Phys. 2, 2105-2112 (2000).
 All-electron ab-initio molecular dynamics.
 https://doi.org/10.1039/b001167n

 G. Lippert, J. Hutter, M. Parrinello.
 Theor. Chem. Acc. 103, 124-140 (1999).
 The Gaussian and augmented-plane-wave density functional method for ab initio 
 molecular dynamics simulations.
 https://doi.org/10.1007/s002140050523

 J. P. Perdew, K. Burke, M. Ernzerhof.
 Phys. Rev. Lett. 77, 3865-3868 (1996).
 Generalized gradient approximation made simple.
 https://doi.org/10.1103/PhysRevLett.77.3865


 -------------------------------------------------------------------------------
 -                                                                             -
 -                                T I M I N G                                  -
 -                                                                             -
 -------------------------------------------------------------------------------
 SUBROUTINE                       CALLS  ASD         SELF TIME        TOTAL TIME
                                MAXIMUM       AVERAGE  MAXIMUM  AVERAGE  MAXIMUM
 CP2K                                 1  1.0    0.043    0.064  240.786  240.787
 qs_energies                          1  2.0    0.001    0.001  239.504  239.735
 scf_env_do_scf                       1  3.0    0.000    0.000  235.391  235.391
 scf_env_do_scf_inner_loop           44  4.0    0.001    0.003  235.391  235.391
 qs_ks_build_kohn_sham_matrix        45  7.0    0.007    0.008  179.978  179.982
 qs_ks_update_qs_env                 44  5.0    0.000    0.000  177.566  177.569
 rebuild_ks_matrix                   44  6.0    0.000    0.000  177.562  177.565
 fft_wrap_pw1pw2                    936  9.9    0.022    0.031  106.111  107.115
 fft_wrap_pw1pw2_250                666 11.1    4.714    5.205  102.860  104.034
 fft3d_ps                           936 11.9   45.878   47.828   83.422   84.507
 pw_poisson_solve                    45  8.0    1.974    2.041   73.093   73.113
 qs_vxc_create                       45  8.0    0.001    0.001   63.157   63.157
 xc_vxc_pw_create                    44  9.0    1.123    1.192   63.157   63.157
 ps_wavelet_solve                    45  9.0   40.637   42.892   47.840   47.958
 xc_pw_derive                       264 11.0    0.003    0.004   46.074   47.524
 mp_alltoall_d54                     45 10.0    4.252   37.372    4.252   37.372
 xc_rho_set_and_dset_create          44 10.0    0.869    1.093   31.053   32.049
 xc_pw_divergence                    44 10.0    0.002    0.002   30.470   31.652
 gspace_mixing                       43  5.0    0.840    0.847   31.204   31.204
 mp_alltoall_z22v                   936 13.9   23.041   30.637   23.041   30.637
 qs_rho_update_rho_low               45  5.0    0.001    0.001   27.111   27.111
 calculate_rho_elec                  45  6.0    0.879    0.886   27.080   27.080
 broyden_mixing                      43  6.0   22.892   23.336   23.735   23.798
 x_to_yz                            489 13.1    9.878   10.051   21.135   21.593
 yz_to_x                            447 12.8    4.611    5.593   16.396   20.926
 density_rs2pw                       45  7.0    0.003    0.004   20.091   20.355
 sum_up_and_integrate                45  8.0    0.001    0.001   14.600   14.625
 integrate_v_rspace                  45  9.0    0.001    0.001   14.323   14.366
 potential_pw2rs                     45 10.0    0.040    0.046   14.041   14.083
 prepare_gapw_den                    45  8.0    0.001    0.001   11.593   11.742
 put_rho0_on_grid                    45  9.0    0.881    0.892   11.165   11.314
 transfer_pw2rs                     226 10.5    0.004    0.004    8.278    8.345
 pw_scatter_p                       489 12.1    7.711    7.815    7.711    7.815
 transfer_rs2pw                     226  8.4    0.006    0.008    7.055    7.229
 xc_functional_eval                 220 10.9    0.000    0.001    5.870    6.901
 pbe_lda_eval                       220 11.9    5.870    6.901    5.870    6.901
 pw_gather_p                        447 11.8    6.399    6.894    6.399    6.894
 transfer_pw2rs_250                  91 10.9    2.228    2.345    6.111    6.271
 mp_waitany                        7616 11.5    5.776    6.223    5.776    6.223
 grid_collocate_task_list            45  7.0    5.822    6.001    5.822    6.001
 pw_derive                          399 11.3    5.298    5.586    5.298    5.586
 transfer_rs2pw_250                  91 10.0    2.328    2.455    5.288    5.469
 mp_sum_d                          1234  5.5    3.078    4.488    3.078    4.488
 hfx_ks_matrix                       45  8.0    0.002    0.002    4.420    4.480
 integrate_four_center               45  9.0    0.926    1.940    4.417    4.477
 integrate_vhg0_rspace               45  8.0    0.017    0.020    3.870    3.876
 mp_alltoall_d45                     46 10.0    2.521    3.357    2.521    3.357
 mp_sync                            635  9.2    2.362    3.326    2.362    3.326
 fft_wrap_pw1pw2_90                  90 10.5    0.135    0.210    2.687    3.151
 mp2_main                             1  3.0    0.000    0.000    2.871    3.102
 cp2k_distribution_to_z_slices       45  9.0    1.767    1.838    2.796    3.071
 pw_copy                            670 10.6    2.847    3.053    2.847    3.053
 pw_poisson_set                      46  8.9    0.002    0.002    2.661    2.681
 pw_copy_to_array                   447 11.8    2.340    2.573    2.340    2.573
 mp_alltoall_d11v                   840  9.4    1.886    2.433    1.886    2.433
 compute_vec_Sigma_x_minus_vxc_       1  4.0    0.000    0.000    2.420    2.420
 pw_axpy                            445  9.3    1.960    2.179    1.960    2.179
 rs_grid_zero                       227 11.1    1.903    1.937    1.903    1.937
 pw_poisson_rebuild                  45  9.0    0.000    0.000    1.815    1.851
 ps_wavelet_create                    1 10.0    0.000    0.000    1.815    1.851
 RS_z_slice_distribution              1 11.0    1.658    1.717    1.815    1.851
 pw_integral_ab_c1d_c1d_gs           45  9.0    1.337    1.461    1.564    1.643
 pw_copy_from_array                 489 12.1    1.340    1.612    1.340    1.612
 integrate_four_center_main          45 10.0    0.049    0.904    0.078    1.592
 transfer_pw2rs_90                   45 12.0    0.336    0.362    1.080    1.221
 calculate_vxc_atom                  45  8.0    0.016    0.095    1.129    1.129
 init_scf_run                         1  3.0    0.000    0.000    1.039    1.040
 scf_env_initial_rho_setup            1  4.0    0.000    0.000    1.035    1.035
 gaVxcgb_GC                          88  9.0    0.041    0.974    0.041    0.974
 pw_zero                            266 10.3    0.901    0.947    0.901    0.947
 transfer_rs2pw_90                   45  9.0    0.264    0.276    0.829    0.919
 transfer_pw2rs_30                   45 12.0    0.503    0.542    0.844    0.889
 mp_isend_dv                       7708 11.6    0.597    0.861    0.597    0.861
 qs_init_subsys                       1  2.0    0.004    0.004    0.860    0.860
 qs_env_setup                         1  3.0    0.000    0.000    0.852    0.852
 qs_env_rebuild_pw_env                2  3.5    0.000    0.000    0.851    0.852
 pw_env_rebuild                       1  5.0    0.001    0.001    0.851    0.851
 pw_grid_setup                        4  6.0    0.000    0.000    0.841    0.841
 pw_grid_setup_internal               4  7.0    0.019    0.023    0.841    0.841
 mp_waitall_1                      8154 12.1    0.549    0.779    0.549    0.779
 mp_irecv_dm3                      1088 11.5    0.314    0.760    0.314    0.760
 transfer_rs2pw_30                   45  9.0    0.386    0.399    0.747    0.758
 calc_screening_functions             1 10.0    0.550    0.555    0.753    0.758
 integrate_four_center_bin         3788 11.0    0.029    0.688    0.029    0.688
 pw_grid_sort                         4  8.0    0.472    0.479    0.669    0.679
 mp_max_i                           535  2.6    0.340    0.625    0.340    0.625
 scale_and_distribute                90 10.0    0.588    0.622    0.588    0.622
 mp_sum_dm                          319  7.6    0.411    0.610    0.411    0.610
 Vh_1c_gg_integrals                  45  8.0    0.007    0.094    0.183    0.602
 mp_sendrecv_dv                    2070 10.0    0.475    0.506    0.475    0.506
 fft_wrap_pw1pw2_30                  90 10.5    0.022    0.026    0.441    0.467
 mp_sum_dv                         1858 11.5    0.393    0.463    0.393    0.463
 mp_isend_dm3                      1088 11.5    0.275    0.458    0.275    0.458
 calculate_rho_atom                  90  9.0    0.121    0.413    0.121    0.413
 mp_sum_i                            17  9.9    0.232    0.385    0.232    0.385
 restraint_control                    1  2.0    0.000    0.000    0.231    0.384
 mp2_main_alloc_hfx                   1  4.0    0.153    0.384    0.153    0.384
 powell_optimize                 139860 11.0    0.349    0.360    0.349    0.360
 pw_scale                           177  9.5    0.256    0.304    0.256    0.304
 mixing_init                          1  5.0    0.289    0.295    0.295    0.296
 mp2_gpw_main                         1  4.0    0.000    0.000    0.282    0.291
 calc_pair_dist_radii                 1 10.0    0.120    0.132    0.265    0.290
 rs_gather_matrices                  45 10.0    0.001    0.002    0.234    0.281
 grid_integrate_task_list            45 10.0    0.048    0.276    0.048    0.276
 transfer_pw2rs_10                   45 12.0    0.107    0.112    0.240    0.254
 qs_scf_new_mos                      44  5.0    0.001    0.001    0.234    0.234
 mp_isendrecv_dv                   4140 12.0    0.122    0.217    0.122    0.217
 sort_shells                          4  9.0    0.197    0.201    0.197    0.201
 rpa_ri_compute_en                    1  5.0    0.000    0.000    0.199    0.199
 rpa_num_int                          1  6.0    0.001    0.001    0.197    0.197
 transfer_rs2pw_10                   45  9.0    0.072    0.076    0.186    0.192
 scf_post_calculation_gpw             1  3.0    0.000    0.000    0.158    0.159
 write_available_results              1  4.0    0.000    0.000    0.158    0.159
 write_mo_free_results                1  5.0    0.026    0.027    0.157    0.159
 xc_pw_smooth                        44 10.0    0.000    0.000    0.122    0.157
 fft_wrap_pw1pw2_10                  90 10.5    0.005    0.006    0.101    0.112
 cp_fm_syevd                         50  6.9    0.000    0.000    0.108    0.108
 pw_grid_assign                       4  8.0    0.104    0.106    0.106    0.108
 eigensolver_symm                    45  6.0    0.002    0.002    0.107    0.107
 calculate_dm_sparse                 44  6.0    0.000    0.000    0.094    0.095
 cp_dbcsr_plus_fm_fm_t               44  7.0    0.001    0.001    0.094    0.095
 mp_irecv_dv                       7689 11.6    0.058    0.089    0.058    0.089
 rpa_num_int_RPA_matrix_operati     100  7.0    0.001    0.002    0.086    0.086
 create_qs_kind_set                   1  2.0    0.000    0.000    0.081    0.082
 read_qs_kind                         2  3.0    0.028    0.031    0.081    0.082
 cp_fm_redistribute_end              50  7.9    0.048    0.080    0.049    0.081
 dbcsr_multiply_generic              65  8.1    0.003    0.003    0.079    0.081
 compute_GW_self_energy             100  7.0    0.001    0.001    0.075    0.076
 mp2_ri_gpw_compute_in                1  5.0    0.000    0.000    0.069    0.069
 hirshfeld_integration                1  6.0    0.000    0.001    0.067    0.068
 mp2_ri_gpw_compute_in_loop           1  6.0    0.000    0.000    0.065    0.066
 calc_mat_Q                         100  8.0    0.000    0.000    0.063    0.065
 cp_fm_syevd_base                    50  7.9    0.032    0.065    0.032    0.065
 calculate_hirshfeld_normalizat       1  6.0    0.000    0.002    0.064    0.065
 contract_S_to_Q                    100  9.0    0.000    0.000    0.062    0.064
 parallel_gemm_fm                   308  8.8    0.000    0.000    0.058    0.062
 parallel_gemm_fm_gemm              308  9.8    0.000    0.000    0.058    0.061
 cp_fm_gemm                         308 10.8    0.057    0.061    0.057    0.061
 contract_B_L                         4  7.0    0.001    0.001    0.056    0.060
 parser_read_line                  4638  4.0    0.002    0.002    0.054    0.057
 parser_read_line_low                12  5.0    0.007    0.021    0.052    0.055
 cp_fm_to_fm_submat_general         112 10.1    0.052    0.054    0.052    0.054
 vxc_of_r_new                       176  9.0    0.000    0.008    0.002    0.054
 broadcast_input_information         12  6.0    0.014    0.016    0.045    0.052
 compute_GW_self_energy_deep        100  8.0    0.019    0.020    0.048    0.050
 mp_sum_l                           761  5.4    0.040    0.049    0.040    0.049
 dbcsr_complete_redistribute        155  8.4    0.006    0.007    0.045    0.046
 qs_energies_init_hamiltonians        1  3.0    0.000    0.000    0.044    0.044
 make_m2s                           130  9.1    0.002    0.002    0.041    0.043
 copy_dbcsr_to_fm                    63  6.5    0.001    0.001    0.042    0.043
 build_core_hamiltonian_matrix        1  4.0    0.000    0.000    0.041    0.041
 pw_grid_remap                        4  8.0    0.014    0.014    0.031    0.039
 overlap_condnum                      1  5.0    0.000    0.000    0.039    0.039
 dbt_total                            8  8.0    0.000    0.000    0.037    0.037
 dbt_contract                         4  9.0    0.001    0.001    0.035    0.035
 offload_free_buffer                 53  8.1    0.027    0.033    0.027    0.033
 integrate_four_center_load          45 10.0    0.000    0.001    0.026    0.033
 hfx_load_balance                     1 11.0    0.000    0.000    0.025    0.033
 start_bse_calculation                1  7.0    0.000    0.000    0.031    0.031
 calculate_rho_atom_coeff            45  6.0    0.007    0.014    0.031    0.031
 hfx_load_balance_range               1 12.0    0.000    0.000    0.023    0.030
 cp_fm_redistribute_start            50  7.9    0.021    0.022    0.026    0.027
 arnoldi_conjugate_gradient           5  6.0    0.001    0.001    0.026    0.026
 mp_cart_create                     297 10.7    0.021    0.026    0.022    0.026
 multiply_cannon                     65  9.1    0.005    0.005    0.025    0.026
 mp_sum_im3                           4  9.0    0.017    0.026    0.017    0.026
 mp_comm_split_direct                48 14.5    0.016    0.025    0.016    0.025
 copy_fm_to_dbcsr                    92  8.1    0.000    0.000    0.024    0.025
 dbt_tas_multiply                     8 11.5    0.000    0.000    0.024    0.025
 dbt_tas_total                        8 12.5    0.001    0.002    0.024    0.024
 -------------------------------------------------------------------------------

 The number of warnings for this run is : 1
 
 -------------------------------------------------------------------------------
  **** **** ******  **  PROGRAM ENDED AT                 2025-03-16 15:35:06.889
 ***** ** ***  *** **   PROGRAM RAN ON                              i02r11c04s06
 **    ****   ******    PROGRAM RAN BY                                   di38fab
 ***** **    ** ** **   PROGRAM PROCESS ID                                 26140
  **** **  *******  **  PROGRAM STOPPED IN /hppfs/scratch/04/di38fab/05_MOL/W4-1
                                           1+ALK/bh/SZV/GW+BSE/Np1
