 DBCSR| CPU Multiplication driver                                           BLAS (U)
 DBCSR| Multrec recursion limit                                              512 (U)
 DBCSR| Multiplication stack size                                           1000 (D)
 DBCSR| Maximum elements for images                                    UNLIMITED (U)
 DBCSR| Multiplicative factor virtual images                                   1 (U)
 DBCSR| Use multiplication densification                                       T (D)
 DBCSR| Multiplication size stacks                                             3 (U)
 DBCSR| Use memory pool for CPU allocation                                     F (U)
 DBCSR| Number of 3D layers                                               SINGLE (U)
 DBCSR| Use MPI memory allocation                                              F (U)
 DBCSR| Use RMA algorithm                                                      F (U)
 DBCSR| Use Communication thread                                               T (U)
 DBCSR| Communication thread load                                             75 (D)
 DBCSR| MPI: My process id                                                     0
 DBCSR| MPI: Number of processes                                              48
 DBCSR| OMP: Current number of threads                                         4
 DBCSR| OMP: Max number of threads                                             4
 DBCSR| Split modifier for TAS multiplication algorithm                  1.0E+00 (U)


  **** **** ******  **  PROGRAM STARTED AT               2025-03-18 23:04:42.428
 ***** ** ***  *** **   PROGRAM STARTED ON                          i04r05c02s04
 **    ****   ******    PROGRAM STARTED BY                               di38fab
 ***** **    ** ** **   PROGRAM PROCESS ID                               1744138
  **** **  *******  **  PROGRAM STARTED IN /hppfs/scratch/04/di38fab/05_MOL/W4-1
                                           1+ALK/b2/aug-cc-pVDZ/GW+BSE

 CP2K| version string:                 CP2K version 2025.1 (Development Version)
 CP2K| source code revision number:                                  git:d2e611a
 CP2K| cp2kflags: omp libint fftw3 libxc parallel scalapack max_contr=4         
 CP2K| is freely available from                            https://www.cp2k.org/
 CP2K| Program compiled at                       Thu 06 Mar 2025 05:09:20 PM CET
 CP2K| Program compiled on                                               login02
 CP2K| Program compiled for                                        Supermuc-foss
 CP2K| Data directory path                  /hppfs/work/pn36zo/di38fab/cp2k/data
 CP2K| Input file name                                                    GW.inp

 GLOBAL| Force Environment number                                              1
 GLOBAL| Basis set file name            /hppfs/scratch/04/di38fab/04_TMD/BASIS_A
 GLOBAL| Potential file name            /hppfs/work/pn36zo/di38fab/cp2k/data/ALL
 GLOBAL| MM Potential file name                                     MM_POTENTIAL
 GLOBAL| Coordinate file name                                      __STD_INPUT__
 GLOBAL| Method name                                                        CP2K
 GLOBAL| Project name                                                       MoS2
 GLOBAL| Run type                                                         ENERGY
 GLOBAL| FFT library                                                       FFTW3
 GLOBAL| Diagonalization library                                       ScaLAPACK
 GLOBAL| DGEMM library                                                      BLAS
 GLOBAL| Orthonormality check for eigenvectors                          DISABLED
 GLOBAL| Matrix multiplication library                                 ScaLAPACK
 GLOBAL| All-to-all communication in single precision                          F
 GLOBAL| FFTs using library dependent lengths                                  F
 GLOBAL| Grid backend                                                       AUTO
 GLOBAL| Global print level                                               MEDIUM
 GLOBAL| MPI I/O enabled                                                       T
 GLOBAL| Total number of message passing processes                            48
 GLOBAL| Number of threads for this process                                    4
 GLOBAL| This output is from process                                           0
 GLOBAL| OpenMP stack size per thread (OMP_STACKSIZE)                    default
 GLOBAL| CPU model name             Intel(R) Xeon(R) Platinum 8174 CPU @ 3.10GHz

 MEMORY| system memory details [Kb]
 MEMORY|                        rank 0           min           max       average
 MEMORY| MemTotal             98436640      98436640      98436664      98436658
 MEMORY| MemFree              83871232      83694864      84200284      83917751
 MEMORY| Buffers                     0             0             0             0
 MEMORY| Cached                2399352       2387216       2405328       2398427
 MEMORY| Slab                  1239496       1205776       1239496       1215104
 MEMORY| SReclaimable           266960        266960        279784        271702
 MEMORY| MemLikelyFree        86537544      86365540      86858700      86587880


 *** Fundamental physical constants (SI units) ***

 *** Literature: B. J. Mohr and B. N. Taylor,
 ***             CODATA recommended values of the fundamental physical
 ***             constants: 2006, Web Version 5.1
 ***             http://physics.nist.gov/constants

 Speed of light in vacuum [m/s]                             2.99792458000000E+08
 Magnetic constant or permeability of vacuum [N/A**2]       1.25663706143592E-06
 Electric constant or permittivity of vacuum [F/m]          8.85418781762039E-12
 Planck constant (h) [J*s]                                  6.62606896000000E-34
 Planck constant (h-bar) [J*s]                              1.05457162825177E-34
 Elementary charge [C]                                      1.60217648700000E-19
 Electron mass [kg]                                         9.10938215000000E-31
 Electron g factor [ ]                                     -2.00231930436220E+00
 Proton mass [kg]                                           1.67262163700000E-27
 Fine-structure constant                                    7.29735253760000E-03
 Rydberg constant [1/m]                                     1.09737315685270E+07
 Avogadro constant [1/mol]                                  6.02214179000000E+23
 Boltzmann constant [J/K]                                   1.38065040000000E-23
 Atomic mass unit [kg]                                      1.66053878200000E-27
 Bohr radius [m]                                            5.29177208590000E-11

 *** Conversion factors ***

 [u] -> [a.u.]                                              1.82288848426455E+03
 [Angstrom] -> [Bohr] = [a.u.]                              1.88972613288564E+00
 [a.u.] = [Bohr] -> [Angstrom]                              5.29177208590000E-01
 [a.u.] -> [s]                                              2.41888432650478E-17
 [a.u.] -> [fs]                                             2.41888432650478E-02
 [a.u.] -> [J]                                              4.35974393937059E-18
 [a.u.] -> [N]                                              8.23872205491840E-08
 [a.u.] -> [K]                                              3.15774647902944E+05
 [a.u.] -> [kJ/mol]                                         2.62549961709828E+03
 [a.u.] -> [kcal/mol]                                       6.27509468713739E+02
 [a.u.] -> [Pa]                                             2.94210107994716E+13
 [a.u.] -> [bar]                                            2.94210107994716E+08
 [a.u.] -> [atm]                                            2.90362800883016E+08
 [a.u.] -> [eV]                                             2.72113838565563E+01
 [a.u.] -> [Hz]                                             6.57968392072181E+15
 [a.u.] -> [1/cm] (wave numbers)                            2.19474631370540E+05
 [a.u./Bohr**2] -> [1/cm]                                   5.14048714338585E+03
 

 CELL_TOP| Volume [angstrom^3]:                                     27000.000000
 CELL_TOP| Vector a [angstrom    30.000     0.000     0.000   |a| =    30.000000
 CELL_TOP| Vector b [angstrom     0.000    30.000     0.000   |b| =    30.000000
 CELL_TOP| Vector c [angstrom     0.000     0.000    30.000   |c| =    30.000000
 CELL_TOP| Angle (b,c), alpha [degree]:                                90.000000
 CELL_TOP| Angle (a,c), beta  [degree]:                                90.000000
 CELL_TOP| Angle (a,b), gamma [degree]:                                90.000000
 CELL_TOP| Numerically orthorhombic:                                         YES
 CELL_TOP| Periodicity                                                      NONE

 GENERATE|  Preliminary Number of Bonds generated:                             0
 GENERATE|  Achieved consistency in connectivity generation.

 CELL| Volume [angstrom^3]:                                         27000.000000
 CELL| Vector a [angstrom]:      30.000     0.000     0.000   |a| =    30.000000
 CELL| Vector b [angstrom]:       0.000    30.000     0.000   |b| =    30.000000
 CELL| Vector c [angstrom]:       0.000     0.000    30.000   |c| =    30.000000
 CELL| Angle (b,c), alpha [degree]:                                    90.000000
 CELL| Angle (a,c), beta  [degree]:                                    90.000000
 CELL| Angle (a,b), gamma [degree]:                                    90.000000
 CELL| Numerically orthorhombic:                                             YES
 CELL| Periodicity                                                          NONE

 CELL_REF| Volume [angstrom^3]:                                     27000.000000
 CELL_REF| Vector a [angstrom    30.000     0.000     0.000   |a| =    30.000000
 CELL_REF| Vector b [angstrom     0.000    30.000     0.000   |b| =    30.000000
 CELL_REF| Vector c [angstrom     0.000     0.000    30.000   |c| =    30.000000
 CELL_REF| Angle (b,c), alpha [degree]:                                90.000000
 CELL_REF| Angle (a,c), beta  [degree]:                                90.000000
 CELL_REF| Angle (a,b), gamma [degree]:                                90.000000
 CELL_REF| Numerically orthorhombic:                                         YES
 CELL_REF| Periodicity                                                      NONE

 *******************************************************************************
 *******************************************************************************
 **                                                                           **
 **     #####                         ##              ##                      **
 **    ##   ##            ##          ##              ##                      **
 **   ##     ##                       ##            ######                    **
 **   ##     ##  ##   ##  ##   #####  ##  ##   ####   ##    #####    #####    **
 **   ##     ##  ##   ##  ##  ##      ## ##   ##      ##   ##   ##  ##   ##   **
 **   ##  ## ##  ##   ##  ##  ##      ####     ###    ##   ######   ######    **
 **    ##  ###   ##   ##  ##  ##      ## ##      ##   ##   ##       ##        **
 **     #######   #####   ##   #####  ##  ##  ####    ##    #####   ##        **
 **           ##                                                    ##        **
 **                                                                           **
 **                                                ... make the atoms dance   **
 **                                                                           **
 **            Copyright (C) by CP2K developers group (2000-2025)             **
 **                      J. Chem. Phys. 152, 194103 (2020)                    **
 **                                                                           **
 *******************************************************************************

 DFT| Spin restricted Kohn-Sham (RKS) calculation                            RKS
 DFT| Multiplicity                                                             1
 DFT| Number of spin states                                                    1
 DFT| Charge                                                                   0
 DFT| Self-interaction correction (SIC)                                       NO
 DFT| Cutoffs: density                                              1.000000E-10
 DFT|          gradient                                             1.000000E-10
 DFT|          tau                                                  1.000000E-10
 DFT|          cutoff_smoothing_range                               0.000000E+00
 DFT| XC density smoothing                                                  NONE
 DFT| XC derivatives                                                          PW

 FUNCTIONAL| PBE:
 FUNCTIONAL| J.P.Perdew, K.Burke, M.Ernzerhof, Phys. Rev. Letter, vol. 77, n 18,
 FUNCTIONAL|  pp. 3865-3868, (1996)sx=0.750sc=1.000{spin unpolarized}           


 QS| Method:                                                                GAPW
 QS| Density plane wave grid type                        NON-SPHERICAL FULLSPACE
 QS| Number of grid levels:                                                    4
 QS| Density cutoff [a.u.]:                                                250.0
 QS| Multi grid cutoff [a.u.]: 1) grid level                               250.0
 QS|                           2) grid level                                83.3
 QS|                           3) grid level                                27.8
 QS|                           4) grid level                                 9.3
 QS| Grid level progression factor:                                          3.0
 QS| Relative density cutoff [a.u.]:                                        50.0
 QS| Interaction thresholds: eps_pgf_orb:                                1.0E-12
 QS|                         eps_filter_matrix:                          0.0E+00
 QS|                         eps_core_charge:                            1.0E-14
 QS|                         eps_rho_gspace:                             1.0E-12
 QS|                         eps_rho_rspace:                             1.0E-12
 QS|                         eps_gvg_rspace:                             1.0E-06
 QS|                         eps_ppl:                                    1.0E-02
 QS|                         eps_ppnl:                                   1.0E-08
 QS| GAPW|      One center basis from orbital basis primitives
 QS| GAPW|                   eps_fit:                                    1.0E-04
 QS| GAPW|                   eps_iso:                                    1.0E-12
 QS| GAPW|                   eps_svd:                                    1.0E-08
 QS| GAPW|                   eps_cpc:                                    1.0E-12
 QS| GAPW|   atom-r-grid: quadrature:                                     GC_LOG
 QS| GAPW|      atom-s-grid:  max l :                                          4
 QS| GAPW|      max_l_rho0 :                                                   2


 ATOMIC KIND INFORMATION

  1. Atomic kind: B                                     Number of atoms:       2

     Orbital Basis Set                                               aug-cc-pVDZ

       Number of orbital shell sets:                                           6
       Number of orbital shells:                                               9
       Number of primitive Cartesian functions:                               17
       Number of Cartesian basis functions:                                   25
       Number of spherical basis functions:                                   23
       Norm type:                                                              2

       Normalised Cartesian orbitals:

                        Set   Shell   Orbital            Exponent    Coefficient

                          1       1    1px               0.023780       0.013311
                          1       1    1py               0.023780       0.013311
                          1       1    1pz               0.023780       0.013311

                          2       1    1s                0.031050       0.052718

                          3       1    1dx2              0.090400       0.024530
                          3       1    1dxy              0.090400       0.042488
                          3       1    1dxz              0.090400       0.042488
                          3       1    1dy2              0.090400       0.024530
                          3       1    1dyz              0.090400       0.042488
                          3       1    1dz2              0.090400       0.024530

                          4       1    1px               6.001000       0.475024
                                                         1.241000       0.369809
                                                         0.336400       0.184501
                                                         0.095380       0.036228
                          4       1    1py               6.001000       0.475024
                                                         1.241000       0.369809
                                                         0.336400       0.184501
                                                         0.095380       0.036228
                          4       1    1pz               6.001000       0.475024
                                                         1.241000       0.369809
                                                         0.336400       0.184501
                                                         0.095380       0.036228

                          4       2    2px               6.001000       0.000000
                                                         1.241000       0.000000
                                                         0.336400       0.000000
                                                         0.095380       0.075555
                          4       2    2py               6.001000       0.000000
                                                         1.241000       0.000000
                                                         0.336400       0.000000
                                                         0.095380       0.075555
                          4       2    2pz               6.001000       0.000000
                                                         1.241000       0.000000
                                                         0.336400       0.000000
                                                         0.095380       0.075555

                          5       1    1s             4570.000000       0.275713
                                                       685.900000       0.511332
                                                       156.500000       0.855677
                                                        44.470000       1.244265
                                                        14.480000       1.439274
                                                         5.131000       1.089508
                                                         1.898000       0.334360
                                                         0.332900       0.004474
                                                         0.104300      -0.000456

                          5       2    2s             4570.000000      -0.055063
                                                       685.900000      -0.104788
                                                       156.500000      -0.171678
                                                        44.470000      -0.268981
                                                        14.480000      -0.316105
                                                         5.131000      -0.337084
                                                         1.898000      -0.151530
                                                         0.332900       0.168522
                                                         0.104300       0.075968

                          5       3    3s             4570.000000       0.000000
                                                       685.900000       0.000000
                                                       156.500000       0.000000
                                                        44.470000       0.000000
                                                        14.480000       0.000000
                                                         5.131000       0.000000
                                                         1.898000       0.000000
                                                         0.332900       0.000000
                                                         0.104300       0.130805

                          6       1    1dx2              0.343000       0.253031
                          6       1    1dxy              0.343000       0.438263
                          6       1    1dxz              0.343000       0.438263
                          6       1    1dy2              0.343000       0.253031
                          6       1    1dyz              0.343000       0.438263
                          6       1    1dz2              0.343000       0.253031

     RI Auxiliary Basis Set                                    aug-cc-pVDZ-OPTRI

       Number of orbital shell sets:                                          17
       Number of orbital shells:                                              17
       Number of primitive Cartesian functions:                               17
       Number of Cartesian basis functions:                                   88
       Number of spherical basis functions:                                   69
       Norm type:                                                              2

       Normalised Cartesian orbitals:

                        Set   Shell   Orbital            Exponent    Coefficient

                          1       1    1px               0.050296       0.033951
                          1       1    1py               0.050296       0.033951
                          1       1    1pz               0.050296       0.033951

                          2       1    1s                0.056572       0.082673

                          3       1    1px               0.150012       0.133075
                          3       1    1py               0.150012       0.133075
                          3       1    1pz               0.150012       0.133075

                          4       1    1fx3              0.199135       0.038997
                          4       1    1fx2y             0.199135       0.087201
                          4       1    1fx2z             0.199135       0.087201
                          4       1    1fxy2             0.199135       0.087201
                          4       1    1fxyz             0.199135       0.151037
                          4       1    1fxz2             0.199135       0.087201
                          4       1    1fy3              0.199135       0.038997
                          4       1    1fy2z             0.199135       0.087201
                          4       1    1fyz2             0.199135       0.087201
                          4       1    1fz3              0.199135       0.038997

                          5       1    1dx2              0.228104       0.123920
                          5       1    1dxy              0.228104       0.214636
                          5       1    1dxz              0.228104       0.214636
                          5       1    1dy2              0.228104       0.123920
                          5       1    1dyz              0.228104       0.214636
                          5       1    1dz2              0.228104       0.123920

                          6       1    1s                0.309008       0.295384

                          7       1    1px               0.312340       0.332832
                          7       1    1py               0.312340       0.332832
                          7       1    1pz               0.312340       0.332832

                          8       1    1dx2              0.523825       0.530867
                          8       1    1dxy              0.523825       0.919488
                          8       1    1dxz              0.523825       0.919488
                          8       1    1dy2              0.523825       0.530867
                          8       1    1dyz              0.523825       0.919488
                          8       1    1dz2              0.523825       0.530867

                          9       1    1fx3              0.580150       0.432434
                          9       1    1fx2y             0.580150       0.966952
                          9       1    1fx2z             0.580150       0.966952
                          9       1    1fxy2             0.580150       0.966952
                          9       1    1fxyz             0.580150       1.674811
                          9       1    1fxz2             0.580150       0.966952
                          9       1    1fy3              0.580150       0.432434
                          9       1    1fy2z             0.580150       0.966952
                          9       1    1fyz2             0.580150       0.966952
                          9       1    1fz3              0.580150       0.432434

                         10       1    1gx4              0.624505       0.304901
                         10       1    1gx3y             0.624505       0.806693
                         10       1    1gx3z             0.624505       0.806693
                         10       1    1gx2y2            0.624505       1.041436
                         10       1    1gx2yz            0.624505       1.803820
                         10       1    1gx2z2            0.624505       1.041436
                         10       1    1gxy3             0.624505       0.806693
                         10       1    1gxy2z            0.624505       1.803820
                         10       1    1gxyz2            0.624505       1.803820
                         10       1    1gxz3             0.624505       0.806693
                         10       1    1gy4              0.624505       0.304901
                         10       1    1gy3z             0.624505       0.806693
                         10       1    1gy2z2            0.624505       1.041436
                         10       1    1gyz3             0.624505       0.806693
                         10       1    1gz4              0.624505       0.304901

                         11       1    1px               0.650325       0.832440
                         11       1    1py               0.650325       0.832440
                         11       1    1pz               0.650325       0.832440

                         12       1    1s                1.138224       0.785382

                         13       1    1px               1.354044       2.082002
                         13       1    1py               1.354044       2.082002
                         13       1    1pz               1.354044       2.082002

                         14       1    1dx2              1.406891       2.991336
                         14       1    1dxy              1.406891       5.181147
                         14       1    1dxz              1.406891       5.181147
                         14       1    1dy2              1.406891       2.991336
                         14       1    1dyz              1.406891       5.181147
                         14       1    1dz2              1.406891       2.991336

                         15       1    1fx3              1.679928       4.729971
                         15       1    1fx2y             1.679928      10.576536
                         15       1    1fx2z             1.679928      10.576536
                         15       1    1fxy2             1.679928      10.576536
                         15       1    1fxyz             1.679928      18.319098
                         15       1    1fxz2             1.679928      10.576536
                         15       1    1fy3              1.679928       4.729971
                         15       1    1fy2z             1.679928      10.576536
                         15       1    1fyz2             1.679928      10.576536
                         15       1    1fz3              1.679928       4.729971

                         16       1    1dx2              3.778629      16.855607
                         16       1    1dxy              3.778629      29.194768
                         16       1    1dxz              3.778629      29.194768
                         16       1    1dy2              3.778629      16.855607
                         16       1    1dyz              3.778629      29.194768
                         16       1    1dz2              3.778629      16.855607

                         17       1    1s                4.192619       2.088210

       Atomic covalent radius [Angstrom]:                                  0.820

       Atomic van der Waals radius [Angstrom]:                             1.920

     The atoms of this atomic kind are PAW atoms (GAPW):
       Hard Gaussian function radius:                                      1.512
       Rho0 radius:                                                        1.512
       Maximum GTO radius used for PAW projector construction:            24.566

     GAPW Soft Basis Set                                        aug-cc-pVDZ_soft

       Number of orbital shell sets:                                           6
       Number of orbital shells:                                               9
       Number of primitive Cartesian functions:                               10
       Number of Cartesian basis functions:                                   25
       Number of spherical basis functions:                                   23
       Norm type:                                                              2

       Normalised Cartesian orbitals:

                        Set   Shell   Orbital            Exponent    Coefficient

                          1       1    1px               0.023780       0.013311
                          1       1    1py               0.023780       0.013311
                          1       1    1pz               0.023780       0.013311

                          2       1    1s                0.031050       0.052718

                          3       1    1dx2              0.090400       0.024530
                          3       1    1dxy              0.090400       0.042488
                          3       1    1dxz              0.090400       0.042488
                          3       1    1dy2              0.090400       0.024530
                          3       1    1dyz              0.090400       0.042488
                          3       1    1dz2              0.090400       0.024530

                          4       1    1px               1.241000       0.369809
                                                         0.336400       0.184501
                                                         0.095380       0.036228
                          4       1    1py               1.241000       0.369809
                                                         0.336400       0.184501
                                                         0.095380       0.036228
                          4       1    1pz               1.241000       0.369809
                                                         0.336400       0.184501
                                                         0.095380       0.036228

                          4       2    2px               1.241000       0.000000
                                                         0.336400       0.000000
                                                         0.095380       0.075555
                          4       2    2py               1.241000       0.000000
                                                         0.336400       0.000000
                                                         0.095380       0.075555
                          4       2    2pz               1.241000       0.000000
                                                         0.336400       0.000000
                                                         0.095380       0.075555

                          5       1    1s                1.898000       0.334360
                                                         0.332900       0.004474
                                                         0.104300      -0.000456

                          5       2    2s                1.898000      -0.151530
                                                         0.332900       0.168522
                                                         0.104300       0.075968

                          5       3    3s                1.898000       0.000000
                                                         0.332900       0.000000
                                                         0.104300       0.130805

                          6       1    1dx2              0.343000       0.253031
                          6       1    1dxy              0.343000       0.438263
                          6       1    1dxz              0.343000       0.438263
                          6       1    1dy2              0.343000       0.253031
                          6       1    1dyz              0.343000       0.438263
                          6       1    1dz2              0.343000       0.253031

     AE Potential information for                                            ALL

       Description:                                       All-electron potential
                                          Krack, Parrinello, PCCP 2, 2105 (2000)

       Gaussian exponent of the core charge distribution:               2.655410
       Electronic configuration (s p d ...):                           4   1   0


 MOLECULE KIND INFORMATION


 All atoms are their own molecule, skipping detailed information


 TOTAL NUMBERS AND MAXIMUM NUMBERS

  Total number of            - Atomic kinds:                                   1
                             - Atoms:                                          2
                             - Shell sets:                                    12
                             - Shells:                                        18
                             - Primitive Cartesian functions:                 34
                             - Cartesian basis functions:                     50
                             - Spherical basis functions:                     46

  Maximum angular momentum of the orbital basis functions:                     2


 MODULE QUICKSTEP: ATOMIC COORDINATES IN ANGSTROM

   Atom Kind Element         X             Y             Z       Z(eff)     Mass
      1    1 B     5     15.793777     15.000000     15.000000   5.0000  10.8110
      2    1 B     5     14.206223     15.000000     15.000000   5.0000  10.8110



 SCF PARAMETERS         Density guess:                                    ATOMIC
                        --------------------------------------------------------
                        max_scf:                                             500
                        max_scf_history:                                       0
                        max_diis:                                              4
                        --------------------------------------------------------
                        eps_scf:                                        1.00E-06
                        eps_scf_history:                                0.00E+00
                        eps_diis:                                       1.00E-01
                        eps_eigval:                                     1.00E-05
                        --------------------------------------------------------
                        level_shift [a.u.]:                             0.000000
                        added MOs                                        41    0
                        --------------------------------------------------------
                        Mixing method:                            BROYDEN_MIXING
                                                charge density mixing in g-space
                        --------------------------------------------------------
                        No outer SCF

 PW_GRID| Information for grid number                                          1
 PW_GRID| Grid distributed over                                    48 processors
 PW_GRID| Real space group dimensions                                    48    1
 PW_GRID| the grid is blocked:                                                NO
 PW_GRID| Cutoff [a.u.]                                                    250.0
 PW_GRID| spherical cutoff:                                                   NO
 PW_GRID|   Bounds   1           -202     202                Points:         405
 PW_GRID|   Bounds   2           -202     202                Points:         405
 PW_GRID|   Bounds   3           -202     202                Points:         405
 PW_GRID| Volume element (a.u.^3)  0.2743E-02     Volume (a.u.^3)    182205.0337
 PW_GRID| Grid span                                                    FULLSPACE
 PW_GRID|   Distribution                         Average         Max         Min
 PW_GRID|   G-Vectors                          1383960.9     1384290     1383885
 PW_GRID|   G-Rays                                3417.2        3418        3417
 PW_GRID|   Real Space Points                  1383960.9     1476225     1312200

 PW_GRID| Information for grid number                                          2
 PW_GRID| Number of the reference grid                                         1
 PW_GRID| Grid distributed over                                    48 processors
 PW_GRID| Real space group dimensions                                    48    1
 PW_GRID| the grid is blocked:                                                NO
 PW_GRID| Cutoff [a.u.]                                                     83.3
 PW_GRID| spherical cutoff:                                                   NO
 PW_GRID|   Bounds   1           -120     119                Points:         240
 PW_GRID|   Bounds   2           -120     119                Points:         240
 PW_GRID|   Bounds   3           -120     119                Points:         240
 PW_GRID| Volume element (a.u.^3)  0.1318E-01     Volume (a.u.^3)    182205.0337
 PW_GRID| Grid span                                                    FULLSPACE
 PW_GRID|   Distribution                         Average         Max         Min
 PW_GRID|   G-Vectors                           288000.0      288720      287520
 PW_GRID|   G-Rays                                1200.0        1203        1198
 PW_GRID|   Real Space Points                   288000.0      288000      288000

 PW_GRID| Information for grid number                                          3
 PW_GRID| Number of the reference grid                                         1
 PW_GRID| Grid distributed over                                    48 processors
 PW_GRID| Real space group dimensions                                    48    1
 PW_GRID| the grid is blocked:                                                NO
 PW_GRID| Cutoff [a.u.]                                                     27.8
 PW_GRID| spherical cutoff:                                                   NO
 PW_GRID|   Bounds   1            -67      67                Points:         135
 PW_GRID|   Bounds   2            -67      67                Points:         135
 PW_GRID|   Bounds   3            -67      67                Points:         135
 PW_GRID| Volume element (a.u.^3)  0.7406E-01     Volume (a.u.^3)    182205.0337
 PW_GRID| Grid span                                                    FULLSPACE
 PW_GRID|   Distribution                         Average         Max         Min
 PW_GRID|   G-Vectors                            51257.8       51570       51030
 PW_GRID|   G-Rays                                 379.7         382         378
 PW_GRID|   Real Space Points                    51257.8       54675       36450

 PW_GRID| Information for grid number                                          4
 PW_GRID| Number of the reference grid                                         1
 PW_GRID| Grid distributed over                                    48 processors
 PW_GRID| Real space group dimensions                                    48    1
 PW_GRID| the grid is blocked:                                                NO
 PW_GRID| Cutoff [a.u.]                                                      9.3
 PW_GRID| spherical cutoff:                                                   NO
 PW_GRID|   Bounds   1            -40      39                Points:          80
 PW_GRID|   Bounds   2            -40      39                Points:          80
 PW_GRID|   Bounds   3            -40      39                Points:          80
 PW_GRID| Volume element (a.u.^3)  0.3559         Volume (a.u.^3)    182205.0337
 PW_GRID| Grid span                                                    FULLSPACE
 PW_GRID|   Distribution                         Average         Max         Min
 PW_GRID|   G-Vectors                            10666.7       10800       10560
 PW_GRID|   G-Rays                                 133.3         135         132
 PW_GRID|   Real Space Points                    10666.7       12800        6400

 POISSON| Solver                                                         WAVELET
 POISSON| Wavelet| Scaling function                                           40
 POISSON| Periodicity                                                       NONE

 RS_GRID| Information for grid number                                          1
 RS_GRID|   Bounds   1           -202     202                Points:         405
 RS_GRID|   Bounds   2           -202     202                Points:         405
 RS_GRID|   Bounds   3           -202     202                Points:         405
 RS_GRID| Real space distribution over                                  3 groups
 RS_GRID| Real space distribution along direction                              1
 RS_GRID| Border size                                                         33
 RS_GRID| Real space distribution over                                  4 groups
 RS_GRID| Real space distribution along direction                              2
 RS_GRID| Border size                                                         33
 RS_GRID| Real space distribution over                                  4 groups
 RS_GRID| Real space distribution along direction                              3
 RS_GRID| Border size                                                         33
 RS_GRID|   Distribution                         Average         Max         Min
 RS_GRID|   Planes                                 201.0         201         201
 RS_GRID|   Distribution                         Average         Max         Min
 RS_GRID|   Planes                                 167.2         168         167
 RS_GRID|   Distribution                         Average         Max         Min
 RS_GRID|   Planes                                 167.2         168         167

 RS_GRID| Information for grid number                                          2
 RS_GRID|   Bounds   1           -120     119                Points:         240
 RS_GRID|   Bounds   2           -120     119                Points:         240
 RS_GRID|   Bounds   3           -120     119                Points:         240
 RS_GRID| Real space distribution over                                  3 groups
 RS_GRID| Real space distribution along direction                              1
 RS_GRID| Border size                                                         34
 RS_GRID| Real space distribution over                                  4 groups
 RS_GRID| Real space distribution along direction                              2
 RS_GRID| Border size                                                         34
 RS_GRID| Real space distribution over                                  4 groups
 RS_GRID| Real space distribution along direction                              3
 RS_GRID| Border size                                                         34
 RS_GRID|   Distribution                         Average         Max         Min
 RS_GRID|   Planes                                 148.0         148         148
 RS_GRID|   Distribution                         Average         Max         Min
 RS_GRID|   Planes                                 128.0         128         128
 RS_GRID|   Distribution                         Average         Max         Min
 RS_GRID|   Planes                                 128.0         128         128

 RS_GRID| Information for grid number                                          3
 RS_GRID|   Bounds   1            -67      67                Points:         135
 RS_GRID|   Bounds   2            -67      67                Points:         135
 RS_GRID|   Bounds   3            -67      67                Points:         135
 RS_GRID| Real space fully replicated
 RS_GRID| Group size                                                           1

 RS_GRID| Information for grid number                                          4
 RS_GRID|   Bounds   1            -40      39                Points:          80
 RS_GRID|   Bounds   2            -40      39                Points:          80
 RS_GRID|   Bounds   3            -40      39                Points:          80
 RS_GRID| Real space fully replicated
 RS_GRID| Group size                                                           1

  HFX_INFO| Replica ID:                                                        1
  HFX_INFO| FRACTION:                                               0.2500000000
  HFX_INFO| Interaction Potential:                                       COULOMB
  HFX_INFO| EPS_SCHWARZ:                                                 1.0E-10
  HFX_INFO| EPS_SCHWARZ_FORCES                                           1.0E-08
  HFX_INFO| EPS_STORAGE_SCALING:                                         1.0E+00
  HFX_INFO| NBINS:                                                            64
  HFX_INFO| BLOCK_SIZE:                                                        1
  HFX_INFO| Number of periodic shells considered:                           NONE
  HFX_INFO| Number of periodic cells considered:                            NONE

 
 RI-RPA| using GPW style
 

 OVERLAP MATRIX CONDITION NUMBER
 1-Norm Condition Number (Estimate)
   CN : |A|*|A^-1|:  6.959E+000 *  4.638E+003   = 3.227E+004  Log(1-CN):  4.5089
 1-Norm and 2-Norm Condition Numbers using Diagonalization
   CN : |A|*|A^-1|:  6.959E+000 *  4.638E+003   = 3.227E+004  Log(1-CN):  4.5089
   CN : max/min ev:  4.971E+000 /  3.218E-004   = 1.544E+004  Log(2-CN):  4.1888

 Number of electrons:                                                         10
 Number of occupied orbitals:                                                  5
 Number of molecular orbitals:                                                46

 Number of orbital functions:                                                 46
 Number of independent orbital functions:                                     46

 Extrapolation method: initial_guess

 Atomic guess: The first density matrix is obtained in terms of atomic orbitals
               and electronic configurations assigned to each atomic kind

 Guess for atomic kind: B

 Electronic structure
    Total number of core electrons                                          0.00
    Total number of valence electrons                                       5.00
    Total number of electrons                                               5.00
    Multiplicity                                                   not specified
    S      2.00  2.00
    P      1.00


 *******************************************************************************
                  Iteration          Convergence                     Energy [au]
 *******************************************************************************
                          1        0.460359E-01                 -24.334985930574
                          2        0.205214E-01                 -24.337140561715
                          3        0.117435E-02                 -24.337989566848
                          4        0.175895E-04                 -24.337991674331
                          5        0.596531E-07                 -24.337991674739

 Energy components [Hartree]           Total Energy ::          -24.337991674739
                                        Band Energy ::          -13.931958661609
                                     Kinetic Energy ::           24.427852794124
                                   Potential Energy ::          -48.765844468863
                                      Virial (-V/T) ::            1.996321366428
                                        Core Energy ::          -32.323145461531
                                          XC Energy ::           -3.540020579852
                                     Coulomb Energy ::           11.525174366644

 Orbital energies  State     L     Occupation   Energy[a.u.]          Energy[eV]

                       1     0          2.000      -6.552602         -178.305360
                       2     0          2.000      -0.345371           -9.398013

                       1     1          1.000      -0.136014           -3.701130


 Total Electron Density at R=0:                                        68.786961
 Re-scaling the density matrix to get the right number of electrons
                  # Electrons              Trace(P)               Scaling factor
                           10                10.000                        1.000


 SCF WAVEFUNCTION OPTIMIZATION

  Step     Update method      Time    Convergence         Total energy    Change
  ------------------------------------------------------------------------------

  HFX_MEM_INFO| Est. max. program size before HFX [MiB]:                    1295
  HFX_MEM_INFO| Number of cart. primitive ERI's calculated:             10823657
  HFX_MEM_INFO| Number of sph. ERI's calculated:                         1679046
  HFX_MEM_INFO| Number of sph. ERI's stored in-core:                     1679046
  HFX_MEM_INFO| Number of sph. ERI's stored on disk:                           0
  HFX_MEM_INFO| Number of sph. ERI's calculated on the fly:                    0
  HFX_MEM_INFO| Total memory consumption ERI's RAM [MiB]:                      7
  HFX_MEM_INFO| Whereof max-vals [MiB]:                                        2
  HFX_MEM_INFO| Total compression factor ERI's RAM:                         1.83
  HFX_MEM_INFO| Total memory consumption ERI's disk [MiB]:                     0
  HFX_MEM_INFO| Total compression factor ERI's disk:                        0.00
  HFX_MEM_INFO| Size of density/Fock matrix [MiB]:                             0
  HFX_MEM_INFO| Size of buffers [MiB]:                                         0
  HFX_MEM_INFO| Est. max. program size after HFX  [MiB]:                    1794

     1 NoMix/Diag. 0.10E+00    4.0     0.77150428       -49.4535962470 -4.95E+01
     2 Broy./Diag. 0.10E+00    2.6     0.06183938       -49.1238454074  3.30E-01
     3 Broy./Diag. 0.10E+00    2.7     0.02647546       -49.0160391075  1.08E-01
     4 Broy./Diag. 0.10E+00    2.6     0.08643354       -49.0634595818 -4.74E-02
     5 Broy./Diag. 0.10E+00    2.8     0.01808018       -49.1870237819 -1.24E-01
     6 Broy./Diag. 0.10E+00    2.7     0.01529521       -49.2451208958 -5.81E-02
     7 Broy./Diag. 0.10E+00    2.7     0.00560312       -49.2907438403 -4.56E-02
     8 Broy./Diag. 0.10E+00    2.8     0.00133949       -49.3003183784 -9.57E-03
     9 Broy./Diag. 0.10E+00    2.8     0.01083589       -49.2925227230  7.80E-03
    10 Broy./Diag. 0.10E+00    2.8     0.00263049       -49.2875898801  4.93E-03
    11 Broy./Diag. 0.10E+00    2.8     0.00326813       -49.2838748332  3.72E-03
    12 Broy./Diag. 0.10E+00    2.8     0.00281312       -49.2868412957 -2.97E-03
    13 Broy./Diag. 0.10E+00    2.8     0.00108145       -49.2916658030 -4.82E-03
    14 Broy./Diag. 0.10E+00    2.9     0.00651253       -49.2924731461 -8.07E-04
    15 Broy./Diag. 0.10E+00    2.8     0.00280357       -49.2948588126 -2.39E-03
    16 Broy./Diag. 0.10E+00    2.9     0.00113618       -49.2965102669 -1.65E-03
    17 Broy./Diag. 0.10E+00    2.8     0.00368418       -49.2964435093  6.68E-05
    18 Broy./Diag. 0.10E+00    2.9     0.00067653       -49.2956223667  8.21E-04
    19 Broy./Diag. 0.10E+00    2.9     0.00027186       -49.2948821984  7.40E-04
    20 Broy./Diag. 0.10E+00    2.9     0.00157125       -49.2946761864  2.06E-04
    21 Broy./Diag. 0.10E+00    2.8     0.00061917       -49.2947136062 -3.74E-05
    22 Broy./Diag. 0.10E+00    2.9     0.00239226       -49.2945805972  1.33E-04
    23 Broy./Diag. 0.10E+00    2.9     0.00294589       -49.2947030493 -1.22E-04
    24 Broy./Diag. 0.10E+00    2.9     0.00054574       -49.2949438334 -2.41E-04
    25 Broy./Diag. 0.10E+00    2.9     0.00041158       -49.2948460813  9.78E-05
    26 Broy./Diag. 0.10E+00    2.9     0.00102163       -49.2946772311  1.69E-04
    27 Broy./Diag. 0.10E+00    2.8     0.00115588       -49.2946334227  4.38E-05
    28 Broy./Diag. 0.10E+00    3.0     0.00013698       -49.2946540246 -2.06E-05
    29 Broy./Diag. 0.10E+00    2.8     0.00004890       -49.2946491613  4.86E-06
    30 Broy./Diag. 0.10E+00    2.9     0.00005037       -49.2946409404  8.22E-06
    31 Broy./Diag. 0.10E+00    2.8     0.00044959       -49.2946581076 -1.72E-05
    32 Broy./Diag. 0.10E+00    2.9     0.00038606       -49.2946038740  5.42E-05
    33 Broy./Diag. 0.10E+00    2.9     0.00014973       -49.2945620195  4.19E-05
    34 Broy./Diag. 0.10E+00    2.9     0.00045308       -49.2945321344  2.99E-05
    35 Broy./Diag. 0.10E+00    2.8     0.00006267       -49.2945519625 -1.98E-05
    36 Broy./Diag. 0.10E+00    2.8     0.00004866       -49.2945658860 -1.39E-05
    37 Broy./Diag. 0.10E+00    2.9     0.00006452       -49.2945508730  1.50E-05
    38 Broy./Diag. 0.10E+00    2.9     0.00029168       -49.2945491881  1.68E-06
    39 Broy./Diag. 0.10E+00    2.8     0.00049599       -49.2945542021 -5.01E-06
    40 Broy./Diag. 0.10E+00    2.9     0.00013430       -49.2945567432 -2.54E-06
    41 Broy./Diag. 0.10E+00    2.9     0.00042807       -49.2945094159  4.73E-05
    42 Broy./Diag. 0.10E+00    2.8     0.00014803       -49.2944906007  1.88E-05
    43 Broy./Diag. 0.10E+00    2.9     0.00018838       -49.2944885177  2.08E-06
    44 Broy./Diag. 0.10E+00    2.9     0.00026179       -49.2945212705 -3.28E-05
    45 Broy./Diag. 0.10E+00    2.8     0.00030981       -49.2945420535 -2.08E-05
    46 Broy./Diag. 0.10E+00    2.9     0.00044270       -49.2945039604  3.81E-05
    47 Broy./Diag. 0.10E+00    3.0     0.00059509       -49.2944878272  1.61E-05
    48 Broy./Diag. 0.10E+00    2.9     0.00087630       -49.2944997835 -1.20E-05
    49 Broy./Diag. 0.10E+00    2.9     0.00129964       -49.2945318174 -3.20E-05
    50 Broy./Diag. 0.10E+00    2.8     0.00185036       -49.2945152379  1.66E-05
    51 Broy./Diag. 0.10E+00    2.9     0.00267855       -49.2945249576 -9.72E-06
    52 Broy./Diag. 0.10E+00    3.0     0.00390905       -49.2945386944 -1.37E-05
    53 Broy./Diag. 0.10E+00    2.8     0.00576854       -49.2945555635 -1.69E-05
    54 Broy./Diag. 0.10E+00    3.0     0.00837929       -49.2945710095 -1.54E-05
    55 Broy./Diag. 0.10E+00    2.9     0.01219556       -49.2945194032  5.16E-05
    56 Broy./Diag. 0.10E+00    2.9     0.01765333       -49.2944501768  6.92E-05
    57 Broy./Diag. 0.10E+00    2.8     0.02547299       -49.2944105011  3.97E-05
    58 Broy./Diag. 0.10E+00    2.9     0.03632207       -49.2943483834  6.21E-05
    59 Broy./Diag. 0.10E+00    2.9     0.05043094       -49.2941813272  1.67E-04
    60 Broy./Diag. 0.10E+00    2.9     0.06633551       -49.2938857488  2.96E-04
    61 Broy./Diag. 0.10E+00    2.9     0.07849780       -49.2932766780  6.09E-04
    62 Broy./Diag. 0.10E+00    2.9     0.09772545       -49.2920957816  1.18E-03
    63 Broy./Diag. 0.10E+00    2.8     0.13035467       -49.2900030953  2.09E-03
    64 Broy./Diag. 0.10E+00    2.9     0.14153052       -49.2868590353  3.14E-03
    65 Broy./Diag. 0.10E+00    2.9     0.12686053       -49.2830184850  3.84E-03
    66 Broy./Diag. 0.10E+00    2.9     0.09776866       -49.2792165642  3.80E-03
    67 Broy./Diag. 0.10E+00    2.8     0.06774802       -49.2760251639  3.19E-03
    68 Broy./Diag. 0.10E+00    2.9     0.06046436       -49.2735825571  2.44E-03
    69 Broy./Diag. 0.10E+00    2.9     0.05176455       -49.2720418850  1.54E-03
    70 Broy./Diag. 0.10E+00    2.9     0.04226588       -49.2711463196  8.96E-04
    71 Broy./Diag. 0.10E+00    2.9     0.03380924       -49.2709492279  1.97E-04
    72 Broy./Diag. 0.10E+00    2.9     0.02752505       -49.2719546613 -1.01E-03
    73 Broy./Diag. 0.10E+00    2.9     0.02127184       -49.2708290674  1.13E-03
    74 Broy./Diag. 0.10E+00    3.0     0.01827427       -49.2712068773 -3.78E-04
    75 Broy./Diag. 0.10E+00    2.9     0.01388817       -49.2644018475  6.81E-03
    76 Broy./Diag. 0.10E+00    2.9     0.02444534       -49.2683319265 -3.93E-03
    77 Broy./Diag. 0.10E+00    2.9     0.02987140       -49.2866335422 -1.83E-02
    78 Broy./Diag. 0.10E+00    2.9     0.08759223       -49.3648611695 -7.82E-02
    79 Broy./Diag. 0.10E+00    2.9     0.03980817       -49.4090780042 -4.42E-02
    80 Broy./Diag. 0.10E+00    2.9     0.26678949       -49.3624660838  4.66E-02
    81 Broy./Diag. 0.10E+00    2.8     0.10703553       -49.2243934164  1.38E-01
    82 Broy./Diag. 0.10E+00    2.8     0.27544661       -49.1850751671  3.93E-02
    83 Broy./Diag. 0.10E+00    2.8     0.10870721       -49.2801734612 -9.51E-02
    84 Broy./Diag. 0.10E+00    2.9     0.07413598       -49.2652135920  1.50E-02
    85 Broy./Diag. 0.10E+00    2.9     0.09353521       -49.2557131579  9.50E-03
    86 Broy./Diag. 0.10E+00    2.9     0.14429576       -49.2405062343  1.52E-02
    87 Broy./Diag. 0.10E+00    2.9     0.11610561       -49.2745876579 -3.41E-02
    88 Broy./Diag. 0.10E+00    2.9     0.10609753       -49.3004755714 -2.59E-02
    89 Broy./Diag. 0.10E+00    2.9     0.07573944       -49.3258674781 -2.54E-02
    90 Broy./Diag. 0.10E+00    2.9     0.17320038       -49.3448029007 -1.89E-02
    91 Broy./Diag. 0.10E+00    2.9     0.05849291       -49.3598711533 -1.51E-02
    92 Broy./Diag. 0.10E+00    2.8     0.03825179       -49.3630268604 -3.16E-03
    93 Broy./Diag. 0.10E+00    2.8     0.04006946       -49.3654782708 -2.45E-03
    94 Broy./Diag. 0.10E+00    2.9     0.13672829       -49.3969889490 -3.15E-02
    95 Broy./Diag. 0.10E+00    2.9     0.17487858       -49.4392503010 -4.23E-02
    96 Broy./Diag. 0.10E+00    2.9     0.14780214       -49.4109068124  2.83E-02
    97 Broy./Diag. 0.10E+00    2.8     0.08436827       -49.3442699550  6.66E-02
    98 Broy./Diag. 0.10E+00    2.9     0.16224432       -49.3200356435  2.42E-02
    99 Broy./Diag. 0.10E+00    2.9     0.11467199       -49.3086155072  1.14E-02
   100 Broy./Diag. 0.10E+00    2.8     0.13699474       -49.3349031554 -2.63E-02
   101 Broy./Diag. 0.10E+00    3.0     0.07136527       -49.3373485901 -2.45E-03
   102 Broy./Diag. 0.10E+00    2.9     0.02603316       -49.3296954180  7.65E-03
   103 Broy./Diag. 0.10E+00    2.8     0.01279417       -49.3401839463 -1.05E-02
   104 Broy./Diag. 0.10E+00    2.9     0.06925575       -49.3375589177  2.63E-03
   105 Broy./Diag. 0.10E+00    2.9     0.06456153       -49.3198225790  1.77E-02
   106 Broy./Diag. 0.10E+00    2.9     0.05868019       -49.3223926858 -2.57E-03
   107 Broy./Diag. 0.10E+00    2.9     0.07821275       -49.3271831141 -4.79E-03
   108 Broy./Diag. 0.10E+00    2.9     0.11645160       -49.3236297239  3.55E-03
   109 Broy./Diag. 0.10E+00    2.9     0.13120726       -49.3119975213  1.16E-02
   110 Broy./Diag. 0.10E+00    3.0     0.12990647       -49.3007525494  1.12E-02
   111 Broy./Diag. 0.10E+00    2.9     0.08300035       -49.2948715657  5.88E-03
   112 Broy./Diag. 0.10E+00    2.9     0.06537951       -49.2947652632  1.06E-04
   113 Broy./Diag. 0.10E+00    2.9     0.07019775       -49.2941743499  5.91E-04
   114 Broy./Diag. 0.10E+00    2.9     0.08163910       -49.2815496500  1.26E-02
   115 Broy./Diag. 0.10E+00    2.9     0.06909062       -49.2698549294  1.17E-02
   116 Broy./Diag. 0.10E+00    2.9     0.08881279       -49.2754885399 -5.63E-03
   117 Broy./Diag. 0.10E+00    2.9     0.10096303       -49.3272596592 -5.18E-02
   118 Broy./Diag. 0.10E+00    2.9     0.07421637       -49.3775441863 -5.03E-02
   119 Broy./Diag. 0.10E+00    2.9     0.06771754       -49.3584407067  1.91E-02
   120 Broy./Diag. 0.10E+00    3.0     0.05377736       -49.3406113976  1.78E-02
   121 Broy./Diag. 0.10E+00    2.9     0.03731573       -49.3277992343  1.28E-02
   122 Broy./Diag. 0.10E+00    2.9     0.03279154       -49.3180297590  9.77E-03
   123 Broy./Diag. 0.10E+00    2.9     0.03140350       -49.3121231967  5.91E-03
   124 Broy./Diag. 0.10E+00    2.9     0.03027793       -49.3109760301  1.15E-03
   125 Broy./Diag. 0.10E+00    2.8     0.02811251       -49.3126358951 -1.66E-03
   126 Broy./Diag. 0.10E+00    2.9     0.02457684       -49.3079707721  4.67E-03
   127 Broy./Diag. 0.10E+00    2.9     0.02360665       -49.3055628486  2.41E-03
   128 Broy./Diag. 0.10E+00    2.9     0.03068275       -49.3012994121  4.26E-03
   129 Broy./Diag. 0.10E+00    2.9     0.04075172       -49.2987211244  2.58E-03
   130 Broy./Diag. 0.10E+00    2.9     0.05082558       -49.2993505187 -6.29E-04
   131 Broy./Diag. 0.10E+00    2.9     0.07278186       -49.2984221192  9.28E-04
   132 Broy./Diag. 0.10E+00    2.9     0.11137294       -49.2972355500  1.19E-03
   133 Broy./Diag. 0.10E+00    2.9     0.14382204       -49.2937651272  3.47E-03
   134 Broy./Diag. 0.10E+00    2.9     0.17767651       -49.3121825890 -1.84E-02
   135 Broy./Diag. 0.10E+00    2.9     0.12326556       -49.3042726144  7.91E-03
   136 Broy./Diag. 0.10E+00    2.9     0.09934184       -49.2827856031  2.15E-02
   137 Broy./Diag. 0.10E+00    2.9     0.09807368       -49.2657655603  1.70E-02
   138 Broy./Diag. 0.10E+00    2.9     0.15533270       -49.2766370820 -1.09E-02
   139 Broy./Diag. 0.10E+00    2.9     0.11241412       -49.2504545445  2.62E-02
   140 Broy./Diag. 0.10E+00    2.9     0.14149584       -49.2391244328  1.13E-02
   141 Broy./Diag. 0.10E+00    2.9     0.09630499       -49.2841641804 -4.50E-02
   142 Broy./Diag. 0.10E+00    2.9     0.08306399       -49.2870960132 -2.93E-03
   143 Broy./Diag. 0.10E+00    2.9     0.09107590       -49.2924936719 -5.40E-03
   144 Broy./Diag. 0.10E+00    2.9     0.07824868       -49.2776781049  1.48E-02
   145 Broy./Diag. 0.10E+00    2.9     0.05213085       -49.2699037028  7.77E-03
   146 Broy./Diag. 0.10E+00    2.9     0.03613655       -49.2911256129 -2.12E-02
   147 Broy./Diag. 0.10E+00    2.9     0.02291994       -49.2951270259 -4.00E-03
   148 Broy./Diag. 0.10E+00    2.9     0.02702981       -49.3038224420 -8.70E-03
   149 Broy./Diag. 0.10E+00    2.9     0.05215538       -49.2961318459  7.69E-03
   150 Broy./Diag. 0.10E+00    2.9     0.06101537       -49.2864120753  9.72E-03
   151 Broy./Diag. 0.10E+00    2.9     0.09691475       -49.2800833563  6.33E-03
   152 Broy./Diag. 0.10E+00    2.9     0.11432259       -49.2787415431  1.34E-03
   153 Broy./Diag. 0.10E+00    2.9     0.11375071       -49.2800250627 -1.28E-03
   154 Broy./Diag. 0.10E+00    2.9     0.08709728       -49.2829087287 -2.88E-03
   155 Broy./Diag. 0.10E+00    2.9     0.07196185       -49.2838665847 -9.58E-04
   156 Broy./Diag. 0.10E+00    3.0     0.06332574       -49.2856491510 -1.78E-03
   157 Broy./Diag. 0.10E+00    2.9     0.04988708       -49.2879084168 -2.26E-03
   158 Broy./Diag. 0.10E+00    2.9     0.06479544       -49.2846840459  3.22E-03
   159 Broy./Diag. 0.10E+00    2.9     0.06161439       -49.2960378683 -1.14E-02
   160 Broy./Diag. 0.10E+00    2.9     0.07053197       -49.2967401051 -7.02E-04
   161 Broy./Diag. 0.10E+00    2.9     0.05632723       -49.2906750450  6.07E-03
   162 Broy./Diag. 0.10E+00    2.8     0.02616572       -49.3009187724 -1.02E-02
   163 Broy./Diag. 0.10E+00    2.9     0.02914281       -49.3223525265 -2.14E-02
   164 Broy./Diag. 0.10E+00    2.8     0.03765149       -49.3277922837 -5.44E-03
   165 Broy./Diag. 0.10E+00    2.8     0.08076500       -49.3267032789  1.09E-03
   166 Broy./Diag. 0.10E+00    3.0     0.08433978       -49.3355786140 -8.88E-03
   167 Broy./Diag. 0.10E+00    2.9     0.14756645       -49.3199163880  1.57E-02
   168 Broy./Diag. 0.10E+00    2.9     0.16785288       -49.3014172879  1.85E-02
   169 Broy./Diag. 0.10E+00    2.9     0.12508979       -49.3027901846 -1.37E-03
   170 Broy./Diag. 0.10E+00    2.9     0.08379118       -49.3031522669 -3.62E-04
   171 Broy./Diag. 0.10E+00    2.9     0.06053649       -49.3001707660  2.98E-03
   172 Broy./Diag. 0.10E+00    2.9     0.02422830       -49.2993686277  8.02E-04
   173 Broy./Diag. 0.10E+00    2.9     0.02689789       -49.2997200761 -3.51E-04
   174 Broy./Diag. 0.10E+00    2.9     0.02722936       -49.2961729107  3.55E-03
   175 Broy./Diag. 0.10E+00    2.9     0.09358631       -49.2834453934  1.27E-02
   176 Broy./Diag. 0.10E+00    2.9     0.18362252       -49.2734376997  1.00E-02
   177 Broy./Diag. 0.10E+00    2.9     0.18656079       -49.2565778024  1.69E-02
   178 Broy./Diag. 0.10E+00    2.9     0.10632773       -49.2607234163 -4.15E-03
   179 Broy./Diag. 0.10E+00    2.9     0.11748085       -49.2595640993  1.16E-03
   180 Broy./Diag. 0.10E+00    2.9     0.09442190       -49.2805600032 -2.10E-02
   181 Broy./Diag. 0.10E+00    2.9     0.08347607       -49.3225875746 -4.20E-02
   182 Broy./Diag. 0.10E+00    2.9     0.04468649       -49.3397528043 -1.72E-02
   183 Broy./Diag. 0.10E+00    2.9     0.02989725       -49.3410319738 -1.28E-03
   184 Broy./Diag. 0.10E+00    2.9     0.03108924       -49.3357702370  5.26E-03
   185 Broy./Diag. 0.10E+00    2.9     0.03801689       -49.3336317632  2.14E-03
   186 Broy./Diag. 0.10E+00    2.9     0.10887474       -49.3303109977  3.32E-03
   187 Broy./Diag. 0.10E+00    2.9     0.12276082       -49.3474926116 -1.72E-02
   188 Broy./Diag. 0.10E+00    2.9     0.14842705       -49.3334219448  1.41E-02
   189 Broy./Diag. 0.10E+00    2.9     0.13720793       -49.3209661561  1.25E-02
   190 Broy./Diag. 0.10E+00    2.9     0.11581651       -49.3139689648  7.00E-03
   191 Broy./Diag. 0.10E+00    2.9     0.09528502       -49.3091896405  4.78E-03
   192 Broy./Diag. 0.10E+00    3.0     0.07441130       -49.3076957408  1.49E-03
   193 Broy./Diag. 0.10E+00    2.9     0.05947972       -49.3059294286  1.77E-03
   194 Broy./Diag. 0.10E+00    2.9     0.05346861       -49.3031566642  2.77E-03
   195 Broy./Diag. 0.10E+00    2.9     0.06072412       -49.2981057898  5.05E-03
   196 Broy./Diag. 0.10E+00    2.9     0.06962065       -49.3049794737 -6.87E-03
   197 Broy./Diag. 0.10E+00    2.9     0.09926724       -49.3096293445 -4.65E-03
   198 Broy./Diag. 0.10E+00    2.9     0.08567155       -49.2846704280  2.50E-02
   199 Broy./Diag. 0.10E+00    2.9     0.10671480       -49.2903431821 -5.67E-03
   200 Broy./Diag. 0.10E+00    2.9     0.17131017       -49.2863512022  3.99E-03
   201 Broy./Diag. 0.10E+00    3.0     0.17745603       -49.2653514724  2.10E-02
   202 Broy./Diag. 0.10E+00    2.9     0.10669179       -49.2684701864 -3.12E-03
   203 Broy./Diag. 0.10E+00    2.9     0.07158168       -49.2765600060 -8.09E-03
   204 Broy./Diag. 0.10E+00    2.9     0.05779969       -49.2886318263 -1.21E-02
   205 Broy./Diag. 0.10E+00    2.9     0.04992591       -49.3012995846 -1.27E-02
   206 Broy./Diag. 0.10E+00    2.9     0.06817889       -49.3017128110 -4.13E-04
   207 Broy./Diag. 0.10E+00    2.9     0.07528050       -49.2950156338  6.70E-03
   208 Broy./Diag. 0.10E+00    2.9     0.08035384       -49.2974204706 -2.40E-03
   209 Broy./Diag. 0.10E+00    2.9     0.03863127       -49.3163998295 -1.90E-02
   210 Broy./Diag. 0.10E+00    2.9     0.05775371       -49.3215456773 -5.15E-03
   211 Broy./Diag. 0.10E+00    2.9     0.06522543       -49.3327439727 -1.12E-02
   212 Broy./Diag. 0.10E+00    2.9     0.06379141       -49.3362576296 -3.51E-03
   213 Broy./Diag. 0.10E+00    2.9     0.09093159       -49.3171597388  1.91E-02
   214 Broy./Diag. 0.10E+00    2.9     0.08735911       -49.2993232012  1.78E-02
   215 Broy./Diag. 0.10E+00    2.9     0.08150104       -49.2825523845  1.68E-02
   216 Broy./Diag. 0.10E+00    2.9     0.09536648       -49.2693699609  1.32E-02
   217 Broy./Diag. 0.10E+00    2.9     0.11297803       -49.2602386832  9.13E-03
   218 Broy./Diag. 0.10E+00    2.9     0.10923262       -49.2483709823  1.19E-02
   219 Broy./Diag. 0.10E+00    2.9     0.09681247       -49.2374405626  1.09E-02
   220 Broy./Diag. 0.10E+00    2.9     0.07577713       -49.2337407759  3.70E-03
   221 Broy./Diag. 0.10E+00    2.9     0.05389622       -49.2314696464  2.27E-03
   222 Broy./Diag. 0.10E+00    2.9     0.04619641       -49.2226396270  8.83E-03
   223 Broy./Diag. 0.10E+00    2.9     0.05002886       -49.2159981902  6.64E-03
   224 Broy./Diag. 0.10E+00    2.9     0.07003065       -49.2133650622  2.63E-03
   225 Broy./Diag. 0.10E+00    2.9     0.04733933       -49.2100899980  3.28E-03
   226 Broy./Diag. 0.10E+00    2.9     0.06006081       -49.2511556505 -4.11E-02
   227 Broy./Diag. 0.10E+00    2.8     0.04579347       -49.2651197699 -1.40E-02
   228 Broy./Diag. 0.10E+00    2.9     0.06745100       -49.2876382208 -2.25E-02
   229 Broy./Diag. 0.10E+00    2.9     0.05981969       -49.3019667615 -1.43E-02
   230 Broy./Diag. 0.10E+00    2.9     0.10773996       -49.2926681577  9.30E-03
   231 Broy./Diag. 0.10E+00    2.8     0.12833084       -49.2471915312  4.55E-02
   232 Broy./Diag. 0.10E+00    2.9     0.05210815       -49.2266955500  2.05E-02
   233 Broy./Diag. 0.10E+00    2.9     0.26640231       -49.1957413587  3.10E-02
   234 Broy./Diag. 0.10E+00    2.9     0.23058823       -49.2507281532 -5.50E-02
   235 Broy./Diag. 0.10E+00    2.9     0.12684017       -49.2628232306 -1.21E-02
   236 Broy./Diag. 0.10E+00    2.9     0.07046674       -49.2852604670 -2.24E-02
   237 Broy./Diag. 0.10E+00    2.9     0.08829532       -49.3184205077 -3.32E-02
   238 Broy./Diag. 0.10E+00    2.9     0.09208967       -49.3505788352 -3.22E-02
   239 Broy./Diag. 0.10E+00    2.9     0.08143383       -49.3433941750  7.18E-03
   240 Broy./Diag. 0.10E+00    2.9     0.08717714       -49.3077976747  3.56E-02
   241 Broy./Diag. 0.10E+00    2.8     0.04705595       -49.3035715988  4.23E-03
   242 Broy./Diag. 0.10E+00    2.9     0.05197579       -49.3060139945 -2.44E-03
   243 Broy./Diag. 0.10E+00    2.9     0.06319685       -49.3071950813 -1.18E-03
   244 Broy./Diag. 0.10E+00    2.9     0.06957785       -49.3040002976  3.19E-03
   245 Broy./Diag. 0.10E+00    2.8     0.07125794       -49.2896848176  1.43E-02
   246 Broy./Diag. 0.10E+00    2.8     0.07220149       -49.2706552298  1.90E-02
   247 Broy./Diag. 0.10E+00    3.0     0.07471826       -49.2580667418  1.26E-02
   248 Broy./Diag. 0.10E+00    2.9     0.08403877       -49.2374505489  2.06E-02
   249 Broy./Diag. 0.10E+00    2.9     0.07921804       -49.2198657672  1.76E-02
   250 Broy./Diag. 0.10E+00    2.9     0.09149706       -49.2028414531  1.70E-02
   251 Broy./Diag. 0.10E+00    2.9     0.08702644       -49.1871930488  1.56E-02
   252 Broy./Diag. 0.10E+00    2.9     0.08271809       -49.1767946653  1.04E-02
   253 Broy./Diag. 0.10E+00    2.8     0.07193153       -49.1654809846  1.13E-02
   254 Broy./Diag. 0.10E+00    2.9     0.05581762       -49.1474119667  1.81E-02
   255 Broy./Diag. 0.10E+00    2.9     0.04787787       -49.1325670555  1.48E-02
   256 Broy./Diag. 0.10E+00    2.9     0.04746538       -49.1254228750  7.14E-03
   257 Broy./Diag. 0.10E+00    2.9     0.03151946       -49.1225657452  2.86E-03
   258 Broy./Diag. 0.10E+00    2.9     0.02589696       -49.1154847758  7.08E-03
   259 Broy./Diag. 0.10E+00    2.9     0.03188440       -49.1095206961  5.96E-03
   260 Broy./Diag. 0.10E+00    2.9     0.05034623       -49.1771534154 -6.76E-02
   261 Broy./Diag. 0.10E+00    2.8     0.17782694       -49.2096997910 -3.25E-02
   262 Broy./Diag. 0.10E+00    2.8     0.16922779       -49.2186717339 -8.97E-03
   263 Broy./Diag. 0.10E+00    2.8     0.17420957       -49.2410309884 -2.24E-02
   264 Broy./Diag. 0.10E+00    2.9     0.08960584       -49.2599914928 -1.90E-02
   265 Broy./Diag. 0.10E+00    2.8     0.14696929       -49.2936980158 -3.37E-02
   266 Broy./Diag. 0.10E+00    2.9     0.07353766       -49.3695827664 -7.59E-02
   267 Broy./Diag. 0.10E+00    2.9     0.21314192       -49.3789336420 -9.35E-03
   268 Broy./Diag. 0.10E+00    2.9     0.16419372       -49.3240274505  5.49E-02
   269 Broy./Diag. 0.10E+00    2.9     0.07025029       -49.3039760441  2.01E-02
   270 Broy./Diag. 0.10E+00    2.8     0.07350603       -49.3061044064 -2.13E-03
   271 Broy./Diag. 0.10E+00    2.9     0.07878115       -49.2983594988  7.74E-03
   272 Broy./Diag. 0.10E+00    2.9     0.24459259       -49.2756134771  2.27E-02
   273 Broy./Diag. 0.10E+00    2.9     0.16905858       -49.3170285157 -4.14E-02
   274 Broy./Diag. 0.10E+00    2.9     0.12891405       -49.3312850406 -1.43E-02
   275 Broy./Diag. 0.10E+00    2.9     0.14041149       -49.3189236657  1.24E-02
   276 Broy./Diag. 0.10E+00    2.9     0.14007586       -49.3032771577  1.56E-02
   277 Broy./Diag. 0.10E+00    2.9     0.12045344       -49.2807225399  2.26E-02
   278 Broy./Diag. 0.10E+00    2.9     0.09543454       -49.2593060266  2.14E-02
   279 Broy./Diag. 0.10E+00    2.8     0.04229396       -49.2474540558  1.19E-02
   280 Broy./Diag. 0.10E+00    2.9     0.05753344       -49.2679480875 -2.05E-02
   281 Broy./Diag. 0.10E+00    2.9     0.06532973       -49.2754889948 -7.54E-03
   282 Broy./Diag. 0.10E+00    2.9     0.09713911       -49.2735163092  1.97E-03
   283 Broy./Diag. 0.10E+00    2.9     0.15070203       -49.2858147167 -1.23E-02
   284 Broy./Diag. 0.10E+00    2.9     0.09840695       -49.2849574158  8.57E-04
   285 Broy./Diag. 0.10E+00    2.9     0.09946792       -49.2342903168  5.07E-02
   286 Broy./Diag. 0.10E+00    2.9     0.23173141       -49.2081644605  2.61E-02
   287 Broy./Diag. 0.10E+00    2.9     0.21019616       -49.1801892143  2.80E-02
   288 Broy./Diag. 0.10E+00    2.9     0.08513815       -49.2193509132 -3.92E-02
   289 Broy./Diag. 0.10E+00    2.9     0.05223196       -49.2619428610 -4.26E-02
   290 Broy./Diag. 0.10E+00    2.9     0.07085406       -49.2929990469 -3.11E-02
   291 Broy./Diag. 0.10E+00    2.8     0.08252467       -49.3297884125 -3.68E-02
   292 Broy./Diag. 0.10E+00    2.9     0.22136022       -49.3377674684 -7.98E-03
   293 Broy./Diag. 0.10E+00    2.9     0.35087786       -49.3914275506 -5.37E-02
   294 Broy./Diag. 0.10E+00    2.8     0.19019357       -49.4081484665 -1.67E-02
   295 Broy./Diag. 0.10E+00    2.8     0.08595238       -49.3613721184  4.68E-02
   296 Broy./Diag. 0.10E+00    2.9     0.11226644       -49.3685927402 -7.22E-03
   297 Broy./Diag. 0.10E+00    2.9     0.06507224       -49.3855328585 -1.69E-02
   298 Broy./Diag. 0.10E+00    2.9     0.03496318       -49.3462953369  3.92E-02
   299 Broy./Diag. 0.10E+00    2.9     0.06930246       -49.3383848294  7.91E-03
   300 Broy./Diag. 0.10E+00    2.9     0.12436826       -49.3137120881  2.47E-02
   301 Broy./Diag. 0.10E+00    2.8     0.14165761       -49.3223233064 -8.61E-03
   302 Broy./Diag. 0.10E+00    2.9     0.11822366       -49.3712238246 -4.89E-02
   303 Broy./Diag. 0.10E+00    2.9     0.06512401       -49.3794485448 -8.22E-03
   304 Broy./Diag. 0.10E+00    3.1     0.07837118       -49.3859587539 -6.51E-03
   305 Broy./Diag. 0.10E+00    2.9     0.10430399       -49.3891004365 -3.14E-03
   306 Broy./Diag. 0.10E+00    2.9     0.10420951       -49.3922439134 -3.14E-03
   307 Broy./Diag. 0.10E+00    2.8     0.06877026       -49.3580514674  3.42E-02
   308 Broy./Diag. 0.10E+00    2.9     0.06744889       -49.3441218831  1.39E-02
   309 Broy./Diag. 0.10E+00    2.8     0.07132887       -49.3445038461 -3.82E-04
   310 Broy./Diag. 0.10E+00    2.9     0.07606694       -49.3106627805  3.38E-02
   311 Broy./Diag. 0.10E+00    2.9     0.05260120       -49.2483754626  6.23E-02
   312 Broy./Diag. 0.10E+00    2.9     0.01539668       -49.2235718942  2.48E-02
   313 Broy./Diag. 0.10E+00    2.9     0.03079096       -49.2367673325 -1.32E-02
   314 Broy./Diag. 0.10E+00    2.9     0.03958091       -49.2358806963  8.87E-04
   315 Broy./Diag. 0.10E+00    2.8     0.09512236       -49.2493679171 -1.35E-02
   316 Broy./Diag. 0.10E+00    2.9     0.07729689       -49.2490282909  3.40E-04
   317 Broy./Diag. 0.10E+00    2.9     0.05851880       -49.2403613324  8.67E-03
   318 Broy./Diag. 0.10E+00    2.9     0.05149132       -49.2428281253 -2.47E-03
   319 Broy./Diag. 0.10E+00    2.9     0.07126177       -49.2451083138 -2.28E-03
   320 Broy./Diag. 0.10E+00    2.9     0.09883793       -49.2617887506 -1.67E-02
   321 Broy./Diag. 0.10E+00    2.9     0.10458823       -49.2677602142 -5.97E-03
   322 Broy./Diag. 0.10E+00    2.9     0.10788827       -49.2700845479 -2.32E-03
   323 Broy./Diag. 0.10E+00    2.9     0.13070259       -49.2703021872 -2.18E-04
   324 Broy./Diag. 0.10E+00    2.8     0.13435297       -49.2706307110 -3.29E-04
   325 Broy./Diag. 0.10E+00    2.9     0.11427999       -49.2659800035  4.65E-03
   326 Broy./Diag. 0.10E+00    2.9     0.10970723       -49.2501183778  1.59E-02
   327 Broy./Diag. 0.10E+00    2.9     0.07478213       -49.2406374394  9.48E-03
   328 Broy./Diag. 0.10E+00    2.9     0.05527260       -49.2635957395 -2.30E-02
   329 Broy./Diag. 0.10E+00    2.9     0.05844963       -49.2776413312 -1.40E-02
   330 Broy./Diag. 0.10E+00    2.9     0.05175852       -49.2721516413  5.49E-03
   331 Broy./Diag. 0.10E+00    2.9     0.03809335       -49.2640859900  8.07E-03
   332 Broy./Diag. 0.10E+00    2.9     0.06963075       -49.2435745336  2.05E-02
   333 Broy./Diag. 0.10E+00    3.0     0.08530192       -49.2272047684  1.64E-02
   334 Broy./Diag. 0.10E+00    2.9     0.05220553       -49.2120263196  1.52E-02
   335 Broy./Diag. 0.10E+00    2.8     0.07096436       -49.2362340100 -2.42E-02
   336 Broy./Diag. 0.10E+00    2.9     0.06015715       -49.2448056817 -8.57E-03
   337 Broy./Diag. 0.10E+00    2.9     0.07110726       -49.2526987590 -7.89E-03
   338 Broy./Diag. 0.10E+00    2.9     0.04394952       -49.2598218366 -7.12E-03
   339 Broy./Diag. 0.10E+00    2.9     0.15799124       -49.2866898678 -2.69E-02
   340 Broy./Diag. 0.10E+00    2.9     0.16285357       -49.3098844979 -2.32E-02
   341 Broy./Diag. 0.10E+00    2.9     0.07672369       -49.3208935383 -1.10E-02
   342 Broy./Diag. 0.10E+00    2.9     0.09794605       -49.3206446192  2.49E-04
   343 Broy./Diag. 0.10E+00    2.9     0.05111032       -49.3027369239  1.79E-02
   344 Broy./Diag. 0.10E+00    2.9     0.10210771       -49.2953257450  7.41E-03
   345 Broy./Diag. 0.10E+00    2.9     0.08291402       -49.3134550721 -1.81E-02
   346 Broy./Diag. 0.10E+00    2.9     0.07344555       -49.3211793351 -7.72E-03
   347 Broy./Diag. 0.10E+00    2.9     0.08522216       -49.3157774240  5.40E-03
   348 Broy./Diag. 0.10E+00    2.9     0.10456410       -49.3075690859  8.21E-03
   349 Broy./Diag. 0.10E+00    2.9     0.11699271       -49.3056770820  1.89E-03
   350 Broy./Diag. 0.10E+00    3.0     0.12271629       -49.3165121598 -1.08E-02
[...]
 *    |             please set the keyword IGNORE_CONVERGENCE_FAILURE.         *
 *  O/|                                                                        *
 * /| |                                                                        *
 * / \                                                            qs_scf.F:611 *
 *******************************************************************************


 ===== Routine Calling Stack ===== 

            3 scf_env_do_scf
            2 qs_energies
            1 CP2K

 *******************************************************************************
 *   ___                                                                       *
 *  /   \                                                                      *
 * [ABORT]                                                                     *
 *  \___/     SCF run NOT converged. To continue the calculation regardless,   *
 *    |             please set the keyword IGNORE_CONVERGENCE_FAILURE.         *
 *  O/|                                                                        *
 * /| |                                                                        *
 * / \                                                            qs_scf.F:611 *
 *******************************************************************************


 ===== Routine Calling Stack ===== 

            3 scf_env_do_scf
            2 qs_energies
            1 CP2K

 *******************************************************************************
 *   ___                                                                       *
 *  /   \                                                                      *
 * [ABORT]                                                                     *
 *  \___/     SCF run NOT converged. To continue the calculation regardless,   *
 *    |             please set the keyword IGNORE_CONVERGENCE_FAILURE.         *
 *  O/|                                                                        *
 * /| |                                                                        *
 * / \                                                            qs_scf.F:611 *
 *******************************************************************************


 ===== Routine Calling Stack ===== 

            3 scf_env_do_scf
            2 qs_energies
            1 CP2K

 *******************************************************************************
 *   ___                                                                       *
 *  /   \                                                                      *
 * [ABORT]                                                                     *
 *  \___/     SCF run NOT converged. To continue the calculation regardless,   *
 *    |             please set the keyword IGNORE_CONVERGENCE_FAILURE.         *
 *  O/|                                                                        *
 * /| |                                                                        *
 * / \                                                            qs_scf.F:611 *
 *******************************************************************************


 ===== Routine Calling Stack ===== 

            3 scf_env_do_scf
            2 qs_energies
            1 CP2K

 *******************************************************************************
 *   ___                                                                       *
 *  /   \                                                                      *
 * [ABORT]                                                                     *
 *  \___/     SCF run NOT converged. To continue the calculation regardless,   *
 *    |             please set the keyword IGNORE_CONVERGENCE_FAILURE.         *
 *  O/|                                                                        *
 * /| |                                                                        *
 * / \                                                            qs_scf.F:611 *
 *******************************************************************************


 ===== Routine Calling Stack ===== 

            3 scf_env_do_scf
            2 qs_energies
            1 CP2K

 *******************************************************************************
 *   ___                                                                       *
 *  /   \                                                                      *
 * [ABORT]                                                                     *
 *  \___/     SCF run NOT converged. To continue the calculation regardless,   *
 *    |             please set the keyword IGNORE_CONVERGENCE_FAILURE.         *
 *  O/|                                                                        *
 * /| |                                                                        *
 * / \                                                            qs_scf.F:611 *
 *******************************************************************************


 ===== Routine Calling Stack ===== 

            3 scf_env_do_scf
            2 qs_energies
            1 CP2K

 *******************************************************************************
 *   ___                                                                       *
 *  /   \                                                                      *
 * [ABORT]                                                                     *
 *  \___/     SCF run NOT converged. To continue the calculation regardless,   *
 *    |             please set the keyword IGNORE_CONVERGENCE_FAILURE.         *
 *  O/|                                                                        *
 * /| |                                                                        *
 * / \                                                            qs_scf.F:611 *
 *******************************************************************************


 ===== Routine Calling Stack ===== 

            3 scf_env_do_scf
            2 qs_energies
            1 CP2K

 *******************************************************************************
 *   ___                                                                       *
 *  /   \                                                                      *
 * [ABORT]                                                                     *
 *  \___/     SCF run NOT converged. To continue the calculation regardless,   *
 *    |             please set the keyword IGNORE_CONVERGENCE_FAILURE.         *
 *  O/|                                                                        *
 * /| |                                                                        *
 * / \                                                            qs_scf.F:611 *
 *******************************************************************************


 ===== Routine Calling Stack ===== 

            3 scf_env_do_scf
            2 qs_energies
            1 CP2K

 *******************************************************************************
 *   ___                                                                       *
 *  /   \                                                                      *
 * [ABORT]                                                                     *
 *  \___/     SCF run NOT converged. To continue the calculation regardless,   *
 *    |             please set the keyword IGNORE_CONVERGENCE_FAILURE.         *
 *  O/|                                                                        *
 * /| |                                                                        *
 * / \                                                            qs_scf.F:611 *
 *******************************************************************************


 ===== Routine Calling Stack ===== 

            3 scf_env_do_scf
            2 qs_energies
            1 CP2K

 *******************************************************************************
 *   ___                                                                       *
 *  /   \                                                                      *
 * [ABORT]                                                                     *
 *  \___/     SCF run NOT converged. To continue the calculation regardless,   *
 *    |             please set the keyword IGNORE_CONVERGENCE_FAILURE.         *
 *  O/|                                                                        *
 * /| |                                                                        *
 * / \                                                            qs_scf.F:611 *
 *******************************************************************************


 ===== Routine Calling Stack ===== 

            3 scf_env_do_scf
            2 qs_energies
            1 CP2K

 *******************************************************************************
 *   ___                                                                       *
 *  /   \                                                                      *
 * [ABORT]                                                                     *
 *  \___/     SCF run NOT converged. To continue the calculation regardless,   *
 *    |             please set the keyword IGNORE_CONVERGENCE_FAILURE.         *
 *  O/|                                                                        *
 * /| |                                                                        *
 * / \                                                            qs_scf.F:611 *
 *******************************************************************************


 ===== Routine Calling Stack ===== 

            3 scf_env_do_scf
            2 qs_energies
            1 CP2K

 *******************************************************************************
 *   ___                                                                       *
 *  /   \                                                                      *
 * [ABORT]                                                                     *
 *  \___/     SCF run NOT converged. To continue the calculation regardless,   *
 *    |             please set the keyword IGNORE_CONVERGENCE_FAILURE.         *
 *  O/|                                                                        *
 * /| |                                                                        *
 * / \                                                            qs_scf.F:611 *
 *******************************************************************************


 ===== Routine Calling Stack ===== 

            3 scf_env_do_scf
            2 qs_energies
            1 CP2K

 *******************************************************************************
 *   ___                                                                       *
 *  /   \                                                                      *
 * [ABORT]                                                                     *
 *  \___/     SCF run NOT converged. To continue the calculation regardless,   *
 *    |             please set the keyword IGNORE_CONVERGENCE_FAILURE.         *
 *  O/|                                                                        *
 * /| |                                                                        *
 * / \                                                            qs_scf.F:611 *
 *******************************************************************************


 ===== Routine Calling Stack ===== 

            3 scf_env_do_scf
            2 qs_energies
            1 CP2K

 *******************************************************************************
 *   ___                                                                       *
 *  /   \                                                                      *
 * [ABORT]                                                                     *
 *  \___/     SCF run NOT converged. To continue the calculation regardless,   *
 *    |             please set the keyword IGNORE_CONVERGENCE_FAILURE.         *
 *  O/|                                                                        *
 * /| |                                                                        *
 * / \                                                            qs_scf.F:611 *
 *******************************************************************************


 ===== Routine Calling Stack ===== 

            3 scf_env_do_scf
            2 qs_energies
            1 CP2K

 *******************************************************************************
 *   ___                                                                       *
 *  /   \                                                                      *
 * [ABORT]                                                                     *
 *  \___/     SCF run NOT converged. To continue the calculation regardless,   *
 *    |             please set the keyword IGNORE_CONVERGENCE_FAILURE.         *
 *  O/|                                                                        *
 * /| |                                                                        *
 * / \                                                            qs_scf.F:611 *
 *******************************************************************************


 ===== Routine Calling Stack ===== 

            3 scf_env_do_scf
            2 qs_energies
            1 CP2K

 *******************************************************************************
 *   ___                                                                       *
 *  /   \                                                                      *
 * [ABORT]                                                                     *
 *  \___/     SCF run NOT converged. To continue the calculation regardless,   *
 *    |             please set the keyword IGNORE_CONVERGENCE_FAILURE.         *
 *  O/|                                                                        *
 * /| |                                                                        *
 * / \                                                            qs_scf.F:611 *
 *******************************************************************************


 ===== Routine Calling Stack ===== 

            3 scf_env_do_scf
            2 qs_energies
            1 CP2K

 *******************************************************************************
 *   ___                                                                       *
 *  /   \                                                                      *
 * [ABORT]                                                                     *
 *  \___/     SCF run NOT converged. To continue the calculation regardless,   *
 *    |             please set the keyword IGNORE_CONVERGENCE_FAILURE.         *
 *  O/|                                                                        *
 * /| |                                                                        *
 * / \                                                            qs_scf.F:611 *
 *******************************************************************************


 ===== Routine Calling Stack ===== 

            3 scf_env_do_scf
            2 qs_energies
            1 CP2K

 *******************************************************************************
 *   ___                                                                       *
 *  /   \                                                                      *
 * [ABORT]                                                                     *
 *  \___/     SCF run NOT converged. To continue the calculation regardless,   *
 *    |             please set the keyword IGNORE_CONVERGENCE_FAILURE.         *
 *  O/|                                                                        *
 * /| |                                                                        *
 * / \                                                            qs_scf.F:611 *
 *******************************************************************************


 ===== Routine Calling Stack ===== 

            3 scf_env_do_scf
            2 qs_energies
            1 CP2K

 *******************************************************************************
 *   ___                                                                       *
 *  /   \                                                                      *
 * [ABORT]                                                                     *
 *  \___/     SCF run NOT converged. To continue the calculation regardless,   *
 *    |             please set the keyword IGNORE_CONVERGENCE_FAILURE.         *
 *  O/|                                                                        *
 * /| |                                                                        *
 * / \                                                            qs_scf.F:611 *
 *******************************************************************************


 ===== Routine Calling Stack ===== 

            3 scf_env_do_scf
            2 qs_energies
            1 CP2K

 *******************************************************************************
 *   ___                                                                       *
 *  /   \                                                                      *
 * [ABORT]                                                                     *
 *  \___/     SCF run NOT converged. To continue the calculation regardless,   *
 *    |             please set the keyword IGNORE_CONVERGENCE_FAILURE.         *
 *  O/|                                                                        *
 * /| |                                                                        *
 * / \                                                            qs_scf.F:611 *
 *******************************************************************************


 ===== Routine Calling Stack ===== 

            3 scf_env_do_scf
            2 qs_energies
            1 CP2K

 *******************************************************************************
 *   ___                                                                       *
 *  /   \                                                                      *
 * [ABORT]                                                                     *
 *  \___/     SCF run NOT converged. To continue the calculation regardless,   *
 *    |             please set the keyword IGNORE_CONVERGENCE_FAILURE.         *
 *  O/|                                                                        *
 * /| |                                                                        *
 * / \                                                            qs_scf.F:611 *
 *******************************************************************************


 ===== Routine Calling Stack ===== 

            3 scf_env_do_scf
            2 qs_energies
            1 CP2K

 *******************************************************************************
 *   ___                                                                       *
 *  /   \                                                                      *
 * [ABORT]                                                                     *
 *  \___/     SCF run NOT converged. To continue the calculation regardless,   *
 *    |             please set the keyword IGNORE_CONVERGENCE_FAILURE.         *
 *  O/|                                                                        *
 * /| |                                                                        *
 * / \                                                            qs_scf.F:611 *
 *******************************************************************************


 ===== Routine Calling Stack ===== 

            3 scf_env_do_scf
            2 qs_energies
            1 CP2K
