 DBCSR| CPU Multiplication driver                                           BLAS (U)
 DBCSR| Multrec recursion limit                                              512 (U)
 DBCSR| Multiplication stack size                                           1000 (D)
 DBCSR| Maximum elements for images                                    UNLIMITED (U)
 DBCSR| Multiplicative factor virtual images                                   1 (U)
 DBCSR| Use multiplication densification                                       T (D)
 DBCSR| Multiplication size stacks                                             3 (U)
 DBCSR| Use memory pool for CPU allocation                                     F (U)
 DBCSR| Number of 3D layers                                               SINGLE (U)
 DBCSR| Use MPI memory allocation                                              F (U)
 DBCSR| Use RMA algorithm                                                      F (U)
 DBCSR| Use Communication thread                                               T (U)
 DBCSR| Communication thread load                                             75 (D)
 DBCSR| MPI: My process id                                                     0
 DBCSR| MPI: Number of processes                                              24
 DBCSR| OMP: Current number of threads                                         4
 DBCSR| OMP: Max number of threads                                             4
 DBCSR| Split modifier for TAS multiplication algorithm                  1.0E+00 (U)


  **** **** ******  **  PROGRAM STARTED AT               2025-03-04 07:33:16.835
 ***** ** ***  *** **   PROGRAM STARTED ON                          i02r04c01s12
 **    ****   ******    PROGRAM STARTED BY                               di38fab
 ***** **    ** ** **   PROGRAM PROCESS ID                               3568624
  **** **  *******  **  PROGRAM STARTED IN /hppfs/scratch/04/di38fab/05_MOL/W4-1
                                           1+ALK/nh/SZVSR

 CP2K| version string:                 CP2K version 2025.1 (Development Version)
 CP2K| source code revision number:                                  git:47877ba
 CP2K| cp2kflags: omp libint fftw3 libxc parallel scalapack max_contr=4         
 CP2K| is freely available from                            https://www.cp2k.org/
 CP2K| Program compiled at                          Thu Feb 20 16:00:34 CET 2025
 CP2K| Program compiled on                                               login04
 CP2K| Program compiled for                                        Supermuc-foss
 CP2K| Data directory path          /hppfs/work/pn36zo/di38fab/newcp2k/cp2k/data
 CP2K| Input file name                                                    GW.inp

 GLOBAL| Force Environment number                                              1
 GLOBAL| Basis set file name            /hppfs/scratch/04/di38fab/04_TMD/BASIS_A
 GLOBAL| Potential file name            /hppfs/work/pn36zo/di38fab/cp2k/data/ALL
 GLOBAL| MM Potential file name                                     MM_POTENTIAL
 GLOBAL| Coordinate file name                                      __STD_INPUT__
 GLOBAL| Method name                                                        CP2K
 GLOBAL| Project name                                                       MoS2
 GLOBAL| Run type                                                         ENERGY
 GLOBAL| FFT library                                                       FFTW3
 GLOBAL| Diagonalization library                                       ScaLAPACK
 GLOBAL| DGEMM library                                                      BLAS
 GLOBAL| Orthonormality check for eigenvectors                          DISABLED
 GLOBAL| Matrix multiplication library                                 ScaLAPACK
 GLOBAL| All-to-all communication in single precision                          F
 GLOBAL| FFTs using library dependent lengths                                  F
 GLOBAL| Grid backend                                                       AUTO
 GLOBAL| Global print level                                               MEDIUM
 GLOBAL| MPI I/O enabled                                                       T
 GLOBAL| Total number of message passing processes                            24
 GLOBAL| Number of threads for this process                                    4
 GLOBAL| This output is from process                                           0
 GLOBAL| OpenMP stack size per thread (OMP_STACKSIZE)                    default
 GLOBAL| CPU model name             Intel(R) Xeon(R) Platinum 8174 CPU @ 3.10GHz

 MEMORY| system memory details [Kb]
 MEMORY|                        rank 0           min           max       average
 MEMORY| MemTotal             98436708      98436708      98436708      98436708
 MEMORY| MemFree              84071616      83774136      84071616      83922876
 MEMORY| Buffers                     0             0             0             0
 MEMORY| Cached                2443892       2443892       2445584       2444738
 MEMORY| Slab                  1191668       1191668       1226820       1209244
 MEMORY| SReclaimable           259036        259036        261360        260198
 MEMORY| MemLikelyFree        86774544      86481080      86774544      86627812


 *** Fundamental physical constants (SI units) ***

 *** Literature: B. J. Mohr and B. N. Taylor,
 ***             CODATA recommended values of the fundamental physical
 ***             constants: 2006, Web Version 5.1
 ***             http://physics.nist.gov/constants

 Speed of light in vacuum [m/s]                             2.99792458000000E+08
 Magnetic constant or permeability of vacuum [N/A**2]       1.25663706143592E-06
 Electric constant or permittivity of vacuum [F/m]          8.85418781762039E-12
 Planck constant (h) [J*s]                                  6.62606896000000E-34
 Planck constant (h-bar) [J*s]                              1.05457162825177E-34
 Elementary charge [C]                                      1.60217648700000E-19
 Electron mass [kg]                                         9.10938215000000E-31
 Electron g factor [ ]                                     -2.00231930436220E+00
 Proton mass [kg]                                           1.67262163700000E-27
 Fine-structure constant                                    7.29735253760000E-03
 Rydberg constant [1/m]                                     1.09737315685270E+07
 Avogadro constant [1/mol]                                  6.02214179000000E+23
 Boltzmann constant [J/K]                                   1.38065040000000E-23
 Atomic mass unit [kg]                                      1.66053878200000E-27
 Bohr radius [m]                                            5.29177208590000E-11

 *** Conversion factors ***

 [u] -> [a.u.]                                              1.82288848426455E+03
 [Angstrom] -> [Bohr] = [a.u.]                              1.88972613288564E+00
 [a.u.] = [Bohr] -> [Angstrom]                              5.29177208590000E-01
 [a.u.] -> [s]                                              2.41888432650478E-17
 [a.u.] -> [fs]                                             2.41888432650478E-02
 [a.u.] -> [J]                                              4.35974393937059E-18
 [a.u.] -> [N]                                              8.23872205491840E-08
 [a.u.] -> [K]                                              3.15774647902944E+05
 [a.u.] -> [kJ/mol]                                         2.62549961709828E+03
 [a.u.] -> [kcal/mol]                                       6.27509468713739E+02
 [a.u.] -> [Pa]                                             2.94210107994716E+13
 [a.u.] -> [bar]                                            2.94210107994716E+08
 [a.u.] -> [atm]                                            2.90362800883016E+08
 [a.u.] -> [eV]                                             2.72113838565563E+01
 [a.u.] -> [Hz]                                             6.57968392072181E+15
 [a.u.] -> [1/cm] (wave numbers)                            2.19474631370540E+05
 [a.u./Bohr**2] -> [1/cm]                                   5.14048714338585E+03
 

 CELL_TOP| Volume [angstrom^3]:                                     27000.000000
 CELL_TOP| Vector a [angstrom    30.000     0.000     0.000   |a| =    30.000000
 CELL_TOP| Vector b [angstrom     0.000    30.000     0.000   |b| =    30.000000
 CELL_TOP| Vector c [angstrom     0.000     0.000    30.000   |c| =    30.000000
 CELL_TOP| Angle (b,c), alpha [degree]:                                90.000000
 CELL_TOP| Angle (a,c), beta  [degree]:                                90.000000
 CELL_TOP| Angle (a,b), gamma [degree]:                                90.000000
 CELL_TOP| Numerically orthorhombic:                                         YES
 CELL_TOP| Periodicity                                                      NONE

 GENERATE|  Preliminary Number of Bonds generated:                             0
 GENERATE|  Achieved consistency in connectivity generation.

 CELL| Volume [angstrom^3]:                                         27000.000000
 CELL| Vector a [angstrom]:      30.000     0.000     0.000   |a| =    30.000000
 CELL| Vector b [angstrom]:       0.000    30.000     0.000   |b| =    30.000000
 CELL| Vector c [angstrom]:       0.000     0.000    30.000   |c| =    30.000000
 CELL| Angle (b,c), alpha [degree]:                                    90.000000
 CELL| Angle (a,c), beta  [degree]:                                    90.000000
 CELL| Angle (a,b), gamma [degree]:                                    90.000000
 CELL| Numerically orthorhombic:                                             YES
 CELL| Periodicity                                                          NONE

 CELL_REF| Volume [angstrom^3]:                                     27000.000000
 CELL_REF| Vector a [angstrom    30.000     0.000     0.000   |a| =    30.000000
 CELL_REF| Vector b [angstrom     0.000    30.000     0.000   |b| =    30.000000
 CELL_REF| Vector c [angstrom     0.000     0.000    30.000   |c| =    30.000000
 CELL_REF| Angle (b,c), alpha [degree]:                                90.000000
 CELL_REF| Angle (a,c), beta  [degree]:                                90.000000
 CELL_REF| Angle (a,b), gamma [degree]:                                90.000000
 CELL_REF| Numerically orthorhombic:                                         YES
 CELL_REF| Periodicity                                                      NONE

 *******************************************************************************
 *******************************************************************************
 **                                                                           **
 **     #####                         ##              ##                      **
 **    ##   ##            ##          ##              ##                      **
 **   ##     ##                       ##            ######                    **
 **   ##     ##  ##   ##  ##   #####  ##  ##   ####   ##    #####    #####    **
 **   ##     ##  ##   ##  ##  ##      ## ##   ##      ##   ##   ##  ##   ##   **
 **   ##  ## ##  ##   ##  ##  ##      ####     ###    ##   ######   ######    **
 **    ##  ###   ##   ##  ##  ##      ## ##      ##   ##   ##       ##        **
 **     #######   #####   ##   #####  ##  ##  ####    ##    #####   ##        **
 **           ##                                                    ##        **
 **                                                                           **
 **                                                ... make the atoms dance   **
 **                                                                           **
 **            Copyright (C) by CP2K developers group (2000-2025)             **
 **                      J. Chem. Phys. 152, 194103 (2020)                    **
 **                                                                           **
 *******************************************************************************

 DFT| Spin restricted Kohn-Sham (RKS) calculation                            RKS
 DFT| Multiplicity                                                             1
 DFT| Number of spin states                                                    1
 DFT| Charge                                                                   0
 DFT| Self-interaction correction (SIC)                                       NO
 DFT| Cutoffs: density                                              1.000000E-10
 DFT|          gradient                                             1.000000E-10
 DFT|          tau                                                  1.000000E-10
 DFT|          cutoff_smoothing_range                               0.000000E+00
 DFT| XC density smoothing                                                  NONE
 DFT| XC derivatives                                                          PW

 FUNCTIONAL| PBE:
 FUNCTIONAL| J.P.Perdew, K.Burke, M.Ernzerhof, Phys. Rev. Letter, vol. 77, n 18,
 FUNCTIONAL|  pp. 3865-3868, (1996)sx=0.750sc=1.000{spin unpolarized}           


 QS| Method:                                                                GAPW
 QS| Density plane wave grid type                        NON-SPHERICAL FULLSPACE
 QS| Number of grid levels:                                                    4
 QS| Density cutoff [a.u.]:                                                250.0
 QS| Multi grid cutoff [a.u.]: 1) grid level                               250.0
 QS|                           2) grid level                                83.3
 QS|                           3) grid level                                27.8
 QS|                           4) grid level                                 9.3
 QS| Grid level progression factor:                                          3.0
 QS| Relative density cutoff [a.u.]:                                        50.0
 QS| Interaction thresholds: eps_pgf_orb:                                1.0E-12
 QS|                         eps_filter_matrix:                          0.0E+00
 QS|                         eps_core_charge:                            1.0E-14
 QS|                         eps_rho_gspace:                             1.0E-12
 QS|                         eps_rho_rspace:                             1.0E-12
 QS|                         eps_gvg_rspace:                             1.0E-06
 QS|                         eps_ppl:                                    1.0E-02
 QS|                         eps_ppnl:                                   1.0E-08
 QS| GAPW|      One center basis from orbital basis primitives
 QS| GAPW|                   eps_fit:                                    1.0E-04
 QS| GAPW|                   eps_iso:                                    1.0E-12
 QS| GAPW|                   eps_svd:                                    1.0E-08
 QS| GAPW|                   eps_cpc:                                    1.0E-12
 QS| GAPW|   atom-r-grid: quadrature:                                     GC_LOG
 QS| GAPW|      atom-s-grid:  max l :                                          4
 QS| GAPW|      max_l_rho0 :                                                   2
 QS| GAPW|      At least one kind is NOT PAW, i.e. it has only soft AO 
 QS| GAPW|      The NOT PAW atoms are treated fully GPW


 ATOMIC KIND INFORMATION

  1. Atomic kind: N                                     Number of atoms:       1

     Orbital Basis Set                                      aug-SZV-MOLOPT-ae-SR

       Number of orbital shell sets:                                           2
       Number of orbital shells:                                               6
       Number of primitive Cartesian functions:                                7
       Number of Cartesian basis functions:                                   15
       Number of spherical basis functions:                                   14
       Norm type:                                                              2

       Normalised Cartesian orbitals:

                        Set   Shell   Orbital            Exponent    Coefficient

                          1       1    1s                0.112012       0.000000
                                                         0.285714       0.194997
                                                         0.878497       0.258372
                                                         3.780456      -0.193164

                          1       2    2s                0.112012       0.083551
                                                         0.285714      -0.189186
                                                         0.878497      -0.469875
                                                         3.780456      -0.002085

                          1       3    2px               0.112012       0.000000
                                                         0.285714       0.116706
                                                         0.878497       0.736704
                                                         3.780456       1.171553
                          1       3    2py               0.112012       0.000000
                                                         0.285714       0.116706
                                                         0.878497       0.736704
                                                         3.780456       1.171553
                          1       3    2pz               0.112012       0.000000
                                                         0.285714       0.116706
                                                         0.878497       0.736704
                                                         3.780456       1.171553

                          1       4    3px               0.112012       0.141957
                                                         0.285714      -0.286713
                                                         0.878497       0.074784
                                                         3.780456       0.008085
                          1       4    3py               0.112012       0.141957
                                                         0.285714      -0.286713
                                                         0.878497       0.074784
                                                         3.780456       0.008085
                          1       4    3pz               0.112012       0.141957
                                                         0.285714      -0.286713
                                                         0.878497       0.074784
                                                         3.780456       0.008085

                          1       5    3dx2              0.112012      -0.000364
                                                         0.285714       0.186009
                                                         0.878497      -0.044751
                                                         3.780456       1.815169
                          1       5    3dxy              0.112012      -0.000630
                                                         0.285714       0.322177
                                                         0.878497      -0.077512
                                                         3.780456       3.143965
                          1       5    3dxz              0.112012      -0.000630
                                                         0.285714       0.322177
                                                         0.878497      -0.077512
                                                         3.780456       3.143965
                          1       5    3dy2              0.112012      -0.000364
                                                         0.285714       0.186009
                                                         0.878497      -0.044751
                                                         3.780456       1.815169
                          1       5    3dyz              0.112012      -0.000630
                                                         0.285714       0.322177
                                                         0.878497      -0.077512
                                                         3.780456       3.143965
                          1       5    3dz2              0.112012      -0.000364
                                                         0.285714       0.186009
                                                         0.878497      -0.044751
                                                         3.780456       1.815169

                          2       1    1s               99.106169       3.454881
                                                        18.052312       3.341410
                                                         4.885660       1.041372

     RI Auxiliary Basis Set             RI_aug-SZV-MOLOPT-ae-SR_N_RI_036_s_p_d_f

       Number of orbital shell sets:                                          12
       Number of orbital shells:                                              12
       Number of primitive Cartesian functions:                               12
       Number of Cartesian basis functions:                                   42
       Number of spherical basis functions:                                   36
       Norm type:                                                              2

       Normalised Cartesian orbitals:

                        Set   Shell   Orbital            Exponent    Coefficient

                          1       1    1s                0.362114       0.332693

                          2       1    6px               0.499696       0.598857
                          2       1    6py               0.499696       0.598857
                          2       1    6pz               0.499696       0.598857

                          3       1    9dx2              0.588659       0.651135
                          3       1    9dxy              0.588659       1.127800
                          3       1    9dxz              0.588659       1.127800
                          3       1    9dy2              0.588659       0.651135
                          3       1    9dyz              0.588659       1.127800
                          3       1    9dz2              0.588659       0.651135

                          4       1    2s                0.631634       0.504963

                          5       1   12fx3              0.736605       0.740002
                          5       1   12fx2y             0.736605       1.654695
                          5       1   12fx2z             0.736605       1.654695
                          5       1   12fxy2             0.736605       1.654695
                          5       1   12fxyz             0.736605       2.866016
                          5       1   12fxz2             0.736605       1.654695
                          5       1   12fy3              0.736605       0.740002
                          5       1   12fy2z             0.736605       1.654695
                          5       1   12fyz2             0.736605       1.654695
                          5       1   12fz3              0.736605       0.740002

                          6       1    7px               0.883396       1.220771
                          6       1    7py               0.883396       1.220771
                          6       1    7pz               0.883396       1.220771

                          7       1   10dx2              1.153946       2.114628
                          7       1   10dxy              1.153946       3.662643
                          7       1   10dxz              1.153946       3.662643
                          7       1   10dy2              1.153946       2.114628
                          7       1   10dyz              1.153946       3.662643
                          7       1   10dz2              1.153946       2.114628

                          8       1    3s                2.978947       1.616059

                          9       1    8px               4.407746       9.103549
                          9       1    8py               4.407746       9.103549
                          9       1    8pz               4.407746       9.103549

                         10       1   11dx2              5.691883      34.522914
                         10       1   11dxy              5.691883      59.795442
                         10       1   11dxz              5.691883      59.795442
                         10       1   11dy2              5.691883      34.522914
                         10       1   11dyz              5.691883      59.795442
                         10       1   11dz2              5.691883      34.522914

                         11       1    4s               18.342052       6.316784

                         12       1    5s              106.308958      23.595951

       Atomic covalent radius [Angstrom]:                                  0.750

       Atomic van der Waals radius [Angstrom]:                             1.550

     The atoms of this atomic kind are PAW atoms (GAPW):
       Hard Gaussian function radius:                                      1.512
       Rho0 radius:                                                        1.512
       Maximum GTO radius used for PAW projector construction:            24.566

     GAPW Soft Basis Set                               aug-SZV-MOLOPT-ae-SR_soft

       Number of orbital shell sets:                                           2
       Number of orbital shells:                                               6
       Number of primitive Cartesian functions:                                4
       Number of Cartesian basis functions:                                   15
       Number of spherical basis functions:                                   14
       Norm type:                                                              2

       Normalised Cartesian orbitals:

                        Set   Shell   Orbital            Exponent    Coefficient

                          1       1    1s                0.112012       0.000000
                                                         0.285714       0.194997
                                                         0.878497       0.258372
                                                         3.780456      -0.193164

                          1       2    2s                0.112012       0.083551
                                                         0.285714      -0.189186
                                                         0.878497      -0.469875
                                                         3.780456      -0.002085

                          1       3    2px               0.112012       0.000000
                                                         0.285714       0.116706
                                                         0.878497       0.736704
                                                         3.780456       1.171553
                          1       3    2py               0.112012       0.000000
                                                         0.285714       0.116706
                                                         0.878497       0.736704
                                                         3.780456       1.171553
                          1       3    2pz               0.112012       0.000000
                                                         0.285714       0.116706
                                                         0.878497       0.736704
                                                         3.780456       1.171553

                          1       4    3px               0.112012       0.141957
                                                         0.285714      -0.286713
                                                         0.878497       0.074784
                                                         3.780456       0.008085
                          1       4    3py               0.112012       0.141957
                                                         0.285714      -0.286713
                                                         0.878497       0.074784
                                                         3.780456       0.008085
                          1       4    3pz               0.112012       0.141957
                                                         0.285714      -0.286713
                                                         0.878497       0.074784
                                                         3.780456       0.008085

                          1       5    3dx2              0.112012      -0.000364
                                                         0.285714       0.186009
                                                         0.878497      -0.044751
                                                         3.780456       1.815169
                          1       5    3dxy              0.112012      -0.000630
                                                         0.285714       0.322177
                                                         0.878497      -0.077512
                                                         3.780456       3.143965
                          1       5    3dxz              0.112012      -0.000630
                                                         0.285714       0.322177
                                                         0.878497      -0.077512
                                                         3.780456       3.143965
                          1       5    3dy2              0.112012      -0.000364
                                                         0.285714       0.186009
                                                         0.878497      -0.044751
                                                         3.780456       1.815169
                          1       5    3dyz              0.112012      -0.000630
                                                         0.285714       0.322177
                                                         0.878497      -0.077512
                                                         3.780456       3.143965
                          1       5    3dz2              0.112012      -0.000364
                                                         0.285714       0.186009
                                                         0.878497      -0.044751
                                                         3.780456       1.815169

                          2       1    1s         

     AE Potential information for                                            ALL

       Description:                                       All-electron potential
                                          Krack, Parrinello, PCCP 2, 2105 (2000)

       Gaussian exponent of the core charge distribution:               5.979100
       Electronic configuration (s p d ...):                           4   3   0

  2. Atomic kind: H                                     Number of atoms:       1

     Orbital Basis Set                                      aug-SZV-MOLOPT-ae-SR

       Number of orbital shell sets:                                           1
       Number of orbital shells:                                               4
       Number of primitive Cartesian functions:                                4
       Number of Cartesian basis functions:                                    6
       Number of spherical basis functions:                                    6
       Norm type:                                                              2

       Normalised Cartesian orbitals:

                        Set   Shell   Orbital            Exponent    Coefficient

                          1       1    2s                0.065428       0.000000
                                                         0.168855       0.083474
                                                         0.623914       0.267839
                                                         3.425251       0.276934

                          1       2    3s                0.065428      -0.066952
                                                         0.168855       0.261968
                                                         0.623914       0.081548
                                                         3.425251      -0.022414

                          1       3    4s                0.065428       0.165615
                                                         0.168855      -0.226449
                                                         0.623914      -0.005802
                                                         3.425251       0.005451

                          1       4    3px               0.065428       0.053063
                                                         0.168855      -0.030502
                                                         0.623914       0.062721
                                                         3.425251       0.019012
                          1       4    3py               0.065428       0.053063
                                                         0.168855      -0.030502
                                                         0.623914       0.062721
                                                         3.425251       0.019012
                          1       4    3pz               0.065428       0.053063
                                                         0.168855      -0.030502
                                                         0.623914       0.062721
                                                         3.425251       0.019012

     RI Auxiliary Basis Set             RI_aug-SZV-MOLOPT-ae-SR_N_RI_008_s_p_d_f

       Number of orbital shell sets:                                           6
       Number of orbital shells:                                               6
       Number of primitive Cartesian functions:                                6
       Number of Cartesian basis functions:                                    8
       Number of spherical basis functions:                                    8
       Norm type:                                                              2

       Normalised Cartesian orbitals:

                        Set   Shell   Orbital            Exponent    Coefficient

                          1       1    1s                0.278583       0.273291

                          2       1    6px               0.490046       0.584434
                          2       1    6py               0.490046       0.584434
                          2       1    6pz               0.490046       0.584434

                          3       1    2s                0.587968       0.478548

                          4       1    3s                1.207264       0.820846

                          5       1    4s                2.669340       1.488377

                          6       1    5s                5.239499       2.468183

       Atomic covalent radius [Angstrom]:                                  0.320

       Atomic van der Waals radius [Angstrom]:                             1.090

     AE Potential information for                                            ALL

       Description:                                       All-electron potential
                                          Krack, Parrinello, PCCP 2, 2105 (2000)

       Gaussian exponent of the core charge distribution:              12.500000
       Electronic configuration (s p d ...):                           1   0   0


 MOLECULE KIND INFORMATION


 All atoms are their own molecule, skipping detailed information


 TOTAL NUMBERS AND MAXIMUM NUMBERS

  Total number of            - Atomic kinds:                                   2
                             - Atoms:                                          2
                             - Shell sets:                                     3
                             - Shells:                                        10
                             - Primitive Cartesian functions:                 11
                             - Cartesian basis functions:                     21
                             - Spherical basis functions:                     20

  Maximum angular momentum of the orbital basis functions:                     2


 MODULE QUICKSTEP: ATOMIC COORDINATES IN ANGSTROM

   Atom Kind Element         X             Y             Z       Z(eff)     Mass
      1    1 N     7     15.518596     15.000000     15.000000   7.0000  14.0067
      2    2 H     1     14.481404     15.000000     15.000000   1.0000   1.0079



 SCF PARAMETERS         Density guess:                                    ATOMIC
                        --------------------------------------------------------
                        max_scf:                                             500
                        max_scf_history:                                       0
                        max_diis:                                              4
                        --------------------------------------------------------
                        eps_scf:                                        1.00E-06
                        eps_scf_history:                                0.00E+00
                        eps_diis:                                       1.00E-01
                        eps_eigval:                                     1.00E-05
                        --------------------------------------------------------
                        level_shift [a.u.]:                             0.000000
                        added MOs                                        16    0
                        --------------------------------------------------------
                        Mixing method:                            BROYDEN_MIXING
                                                charge density mixing in g-space
                        --------------------------------------------------------
                        No outer SCF

 PW_GRID| Information for grid number                                          1
 PW_GRID| Grid distributed over                                    24 processors
 PW_GRID| Real space group dimensions                                    24    1
 PW_GRID| the grid is blocked:                                                NO
 PW_GRID| Cutoff [a.u.]                                                    250.0
 PW_GRID| spherical cutoff:                                                   NO
 PW_GRID|   Bounds   1           -202     202                Points:         405
 PW_GRID|   Bounds   2           -202     202                Points:         405
 PW_GRID|   Bounds   3           -202     202                Points:         405
 PW_GRID| Volume element (a.u.^3)  0.2743E-02     Volume (a.u.^3)    182205.0337
 PW_GRID| Grid span                                                    FULLSPACE
 PW_GRID|   Distribution                         Average         Max         Min
 PW_GRID|   G-Vectors                          2767921.9     2768175     2767770
 PW_GRID|   G-Rays                                6834.4        6835        6834
 PW_GRID|   Real Space Points                  2767921.9     2788425     2624400

 PW_GRID| Information for grid number                                          2
 PW_GRID| Number of the reference grid                                         1
 PW_GRID| Grid distributed over                                    24 processors
 PW_GRID| Real space group dimensions                                    24    1
 PW_GRID| the grid is blocked:                                                NO
 PW_GRID| Cutoff [a.u.]                                                     83.3
 PW_GRID| spherical cutoff:                                                   NO
 PW_GRID|   Bounds   1           -120     119                Points:         240
 PW_GRID|   Bounds   2           -120     119                Points:         240
 PW_GRID|   Bounds   3           -120     119                Points:         240
 PW_GRID| Volume element (a.u.^3)  0.1318E-01     Volume (a.u.^3)    182205.0337
 PW_GRID| Grid span                                                    FULLSPACE
 PW_GRID|   Distribution                         Average         Max         Min
 PW_GRID|   G-Vectors                           576000.0      576240      575760
 PW_GRID|   G-Rays                                2400.0        2401        2399
 PW_GRID|   Real Space Points                   576000.0      576000      576000

 PW_GRID| Information for grid number                                          3
 PW_GRID| Number of the reference grid                                         1
 PW_GRID| Grid distributed over                                    24 processors
 PW_GRID| Real space group dimensions                                    24    1
 PW_GRID| the grid is blocked:                                                NO
 PW_GRID| Cutoff [a.u.]                                                     27.8
 PW_GRID| spherical cutoff:                                                   NO
 PW_GRID|   Bounds   1            -67      67                Points:         135
 PW_GRID|   Bounds   2            -67      67                Points:         135
 PW_GRID|   Bounds   3            -67      67                Points:         135
 PW_GRID| Volume element (a.u.^3)  0.7406E-01     Volume (a.u.^3)    182205.0337
 PW_GRID| Grid span                                                    FULLSPACE
 PW_GRID|   Distribution                         Average         Max         Min
 PW_GRID|   G-Vectors                           102515.6      102735      102330
 PW_GRID|   G-Rays                                 759.4         761         758
 PW_GRID|   Real Space Points                   102515.6      109350       91125

 PW_GRID| Information for grid number                                          4
 PW_GRID| Number of the reference grid                                         1
 PW_GRID| Grid distributed over                                    24 processors
 PW_GRID| Real space group dimensions                                    24    1
 PW_GRID| the grid is blocked:                                                NO
 PW_GRID| Cutoff [a.u.]                                                      9.3
 PW_GRID| spherical cutoff:                                                   NO
 PW_GRID|   Bounds   1            -40      39                Points:          80
 PW_GRID|   Bounds   2            -40      39                Points:          80
 PW_GRID|   Bounds   3            -40      39                Points:          80
 PW_GRID| Volume element (a.u.^3)  0.3559         Volume (a.u.^3)    182205.0337
 PW_GRID| Grid span                                                    FULLSPACE
 PW_GRID|   Distribution                         Average         Max         Min
 PW_GRID|   G-Vectors                            21333.3       21360       21280
 PW_GRID|   G-Rays                                 266.7         267         266
 PW_GRID|   Real Space Points                    21333.3       25600       19200

 POISSON| Solver                                                         WAVELET
 POISSON| Wavelet| Scaling function                                           40
 POISSON| Periodicity                                                       NONE

 RS_GRID| Information for grid number                                          1
 RS_GRID|   Bounds   1           -202     202                Points:         405
 RS_GRID|   Bounds   2           -202     202                Points:         405
 RS_GRID|   Bounds   3           -202     202                Points:         405
 RS_GRID| Real space distribution over                                  4 groups
 RS_GRID| Real space distribution along direction                              2
 RS_GRID| Border size                                                         34
 RS_GRID| Real space distribution over                                  6 groups
 RS_GRID| Real space distribution along direction                              3
 RS_GRID| Border size                                                         34
 RS_GRID|   Distribution                         Average         Max         Min
 RS_GRID|   Planes                                 169.2         170         169
 RS_GRID|   Distribution                         Average         Max         Min
 RS_GRID|   Planes                                 135.5         136         135

 RS_GRID| Information for grid number                                          2
 RS_GRID|   Bounds   1           -120     119                Points:         240
 RS_GRID|   Bounds   2           -120     119                Points:         240
 RS_GRID|   Bounds   3           -120     119                Points:         240
 RS_GRID| Real space distribution over                                  4 groups
 RS_GRID| Real space distribution along direction                              2
 RS_GRID| Border size                                                         37
 RS_GRID| Real space distribution over                                  6 groups
 RS_GRID| Real space distribution along direction                              3
 RS_GRID| Border size                                                         37
 RS_GRID|   Distribution                         Average         Max         Min
 RS_GRID|   Planes                                 134.0         134         134
 RS_GRID|   Distribution                         Average         Max         Min
 RS_GRID|   Planes                                 114.0         114         114

 RS_GRID| Information for grid number                                          3
 RS_GRID|   Bounds   1            -67      67                Points:         135
 RS_GRID|   Bounds   2            -67      67                Points:         135
 RS_GRID|   Bounds   3            -67      67                Points:         135
 RS_GRID| Real space fully replicated
 RS_GRID| Group size                                                           1

 RS_GRID| Information for grid number                                          4
 RS_GRID|   Bounds   1            -40      39                Points:          80
 RS_GRID|   Bounds   2            -40      39                Points:          80
 RS_GRID|   Bounds   3            -40      39                Points:          80
 RS_GRID| Real space fully replicated
 RS_GRID| Group size                                                           1

  HFX_INFO| Replica ID:                                                        1
  HFX_INFO| FRACTION:                                               0.2500000000
  HFX_INFO| Interaction Potential:                                       COULOMB
  HFX_INFO| EPS_SCHWARZ:                                                 1.0E-10
  HFX_INFO| EPS_SCHWARZ_FORCES                                           1.0E-08
  HFX_INFO| EPS_STORAGE_SCALING:                                         1.0E+00
  HFX_INFO| NBINS:                                                            64
  HFX_INFO| BLOCK_SIZE:                                                        1
  HFX_INFO| Number of periodic shells considered:                           NONE
  HFX_INFO| Number of periodic cells considered:                            NONE

 
 RI-RPA| using GPW style
 

 OVERLAP MATRIX CONDITION NUMBER
 1-Norm Condition Number (Estimate)
   CN : |A|*|A^-1|:  4.207E+000 *  1.116E+002   = 4.694E+002  Log(1-CN):  2.6715
 1-Norm and 2-Norm Condition Numbers using Diagonalization
   CN : |A|*|A^-1|:  4.207E+000 *  1.116E+002   = 4.694E+002  Log(1-CN):  2.6715
   CN : max/min ev:  2.973E+000 /  1.372E-002   = 2.168E+002  Log(2-CN):  2.3360

 Number of electrons:                                                          8
 Number of occupied orbitals:                                                  4
 Number of molecular orbitals:                                                20

 Number of orbital functions:                                                 20
 Number of independent orbital functions:                                     20

 Extrapolation method: initial_guess

 Atomic guess: The first density matrix is obtained in terms of atomic orbitals
               and electronic configurations assigned to each atomic kind

 Guess for atomic kind: N

 Electronic structure
    Total number of core electrons                                          0.00
    Total number of valence electrons                                       7.00
    Total number of electrons                                               7.00
    Multiplicity                                                   not specified
    S      2.00  2.00
    P      3.00


 *******************************************************************************
                  Iteration          Convergence                     Energy [au]
 *******************************************************************************
                          1        0.159909                     -53.340877683251
                          2        0.769146E-01                 -53.353877926770
                          3        0.463278E-03                 -53.358451509292
                          4        0.156014E-03                 -53.358451645833
                          5        0.102251E-04                 -53.358451658533
                          6        0.178265E-08                 -53.358451658590

 Energy components [Hartree]           Total Energy ::          -53.358451658590
                                        Band Energy ::          -29.695765597812
                                     Kinetic Energy ::           52.385975587247
                                   Potential Energy ::         -105.744427245837
                                      Virial (-V/T) ::            2.018563672060
                                        Core Energy ::          -72.851122194822
                                          XC Energy ::           -6.109149652554
                                     Coulomb Energy ::           25.601820188786

 Orbital energies  State     L     Occupation   Energy[a.u.]          Energy[eV]

                       1     0          2.000     -13.845221         -376.747634
                       2     0          2.000      -0.658428          -17.916731

                       1     1          3.000      -0.229489           -6.244716


 Total Electron Density at R=0:                                       126.344533

 Guess for atomic kind: H

 Electronic structure
    Total number of core electrons                                          0.00
    Total number of valence electrons                                       1.00
    Total number of electrons                                               1.00
    Multiplicity                                                   not specified
    S      1.00


 *******************************************************************************
                  Iteration          Convergence                     Energy [au]
 *******************************************************************************
                          1        0.105001E-01                  -0.442912571909
                          2        0.809393E-03                  -0.443000038014
                          3        0.126045E-03                  -0.443002205783
                          4        0.926691E-07                  -0.443002227638

 Energy components [Hartree]           Total Energy ::           -0.443002227638
                                        Band Energy ::           -0.231242105371
                                     Kinetic Energy ::            0.416655567325
                                   Potential Energy ::           -0.859657794963
                                      Virial (-V/T) ::            2.063233669195
                                        Core Energy ::           -0.493343888102
                                          XC Energy ::           -0.231659799565
                                     Coulomb Energy ::            0.282001460029

 Orbital energies  State     L     Occupation   Energy[a.u.]          Energy[eV]

                       1     0          1.000      -0.231242           -6.292418


 Total Electron Density at R=0:                                         0.184980
 Re-scaling the density matrix to get the right number of electrons
                  # Electrons              Trace(P)               Scaling factor
                            8                 8.000                        1.000


 SCF WAVEFUNCTION OPTIMIZATION

  Step     Update method      Time    Convergence         Total energy    Change
  ------------------------------------------------------------------------------

  HFX_MEM_INFO| Est. max. program size before HFX [MiB]:                    2197
  HFX_MEM_INFO| Number of cart. primitive ERI's calculated:              5879217
  HFX_MEM_INFO| Number of sph. ERI's calculated:                           73312
  HFX_MEM_INFO| Number of sph. ERI's stored in-core:                       73312
  HFX_MEM_INFO| Number of sph. ERI's stored on disk:                           0
  HFX_MEM_INFO| Number of sph. ERI's calculated on the fly:                    0
  HFX_MEM_INFO| Total memory consumption ERI's RAM [MiB]:                      1
  HFX_MEM_INFO| Whereof max-vals [MiB]:                                        1
  HFX_MEM_INFO| Total compression factor ERI's RAM:                         0.57
  HFX_MEM_INFO| Total memory consumption ERI's disk [MiB]:                     0
  HFX_MEM_INFO| Total compression factor ERI's disk:                        0.00
  HFX_MEM_INFO| Size of density/Fock matrix [MiB]:                             0
  HFX_MEM_INFO| Size of buffers [MiB]:                                         0
  HFX_MEM_INFO| Est. max. program size after HFX  [MiB]:                    2707

     1 NoMix/Diag. 0.10E+00    6.2     0.94794575       -54.3549978085 -5.44E+01
     2 Broy./Diag. 0.10E+00    4.9     0.06088563       -53.9753469845  3.80E-01
     3 Broy./Diag. 0.10E+00    4.9     0.04747581       -53.9711080526  4.24E-03
     4 Broy./Diag. 0.10E+00    4.9     0.06612574       -54.2580321971 -2.87E-01
     5 Broy./Diag. 0.10E+00    4.9     0.01773389       -54.4639872071 -2.06E-01
     6 Broy./Diag. 0.10E+00    5.1     0.01632897       -54.4616727210  2.31E-03
     7 Broy./Diag. 0.10E+00    5.1     0.01613127       -54.3965560527  6.51E-02
     8 Broy./Diag. 0.10E+00    5.3     0.00274112       -54.3637947409  3.28E-02
     9 Broy./Diag. 0.10E+00    5.4     0.02078163       -54.4076004475 -4.38E-02
    10 Broy./Diag. 0.10E+00    5.4     0.00591212       -54.4631068034 -5.55E-02
    11 Broy./Diag. 0.10E+00    5.4     0.00517051       -54.4609708072  2.14E-03
    12 Broy./Diag. 0.10E+00    5.3     0.00948613       -54.4231380167  3.78E-02
    13 Broy./Diag. 0.10E+00    5.4     0.00236951       -54.3988785970  2.43E-02
    14 Broy./Diag. 0.10E+00    5.3     0.00750763       -54.4118526154 -1.30E-02
    15 Broy./Diag. 0.10E+00    5.3     0.00452135       -54.4358939512 -2.40E-02
    16 Broy./Diag. 0.10E+00    5.3     0.00109135       -54.4451158224 -9.22E-03
    17 Broy./Diag. 0.10E+00    5.3     0.00256598       -54.4408894429  4.23E-03
    18 Broy./Diag. 0.10E+00    5.3     0.00100864       -54.4347926269  6.10E-03
    19 Broy./Diag. 0.10E+00    5.4     0.00018023       -54.4324557992  2.34E-03
    20 Broy./Diag. 0.10E+00    5.3     0.00090322       -54.4317511759  7.05E-04
    21 Broy./Diag. 0.10E+00    5.4     0.00053875       -54.4306640436  1.09E-03
    22 Broy./Diag. 0.10E+00    5.4     0.00011090       -54.4296894891  9.75E-04
    23 Broy./Diag. 0.10E+00    5.5     0.00019984       -54.4292009312  4.89E-04
    24 Broy./Diag. 0.10E+00    5.4     0.00020094       -54.4293660677 -1.65E-04
    25 Broy./Diag. 0.10E+00    5.4     0.00047298       -54.4305834308 -1.22E-03
    26 Broy./Diag. 0.10E+00    5.5     0.00053898       -54.4311641682 -5.81E-04
    27 Broy./Diag. 0.10E+00    5.4     0.00031416       -54.4308648535  2.99E-04
    28 Broy./Diag. 0.10E+00    5.4     0.00018006       -54.4308550947  9.76E-06
    29 Broy./Diag. 0.10E+00    5.4     0.00010989       -54.4307920580  6.30E-05
    30 Broy./Diag. 0.10E+00    5.3     0.00015721       -54.4305574646  2.35E-04
    31 Broy./Diag. 0.10E+00    5.4     0.00016381       -54.4307060500 -1.49E-04
    32 Broy./Diag. 0.10E+00    5.4     0.00011726       -54.4307094686 -3.42E-06
    33 Broy./Diag. 0.10E+00    5.5     0.00002559       -54.4304801519  2.29E-04
    34 Broy./Diag. 0.10E+00    5.4     0.00002057       -54.4304388966  4.13E-05
    35 Broy./Diag. 0.10E+00    5.3     0.00005060       -54.4303041804  1.35E-04
    36 Broy./Diag. 0.10E+00    5.4     0.00005943       -54.4302526044  5.16E-05
    37 Broy./Diag. 0.10E+00    5.4     0.00005077       -54.4304117174 -1.59E-04
    38 Broy./Diag. 0.10E+00    5.3     0.00004124       -54.4304157100 -3.99E-06
    39 Broy./Diag. 0.10E+00    5.3     0.00005414       -54.4303847979  3.09E-05
    40 Broy./Diag. 0.10E+00    5.3     0.00009247       -54.4303984840 -1.37E-05
    41 Broy./Diag. 0.10E+00    5.4     0.00015647       -54.4303676991  3.08E-05
    42 Broy./Diag. 0.10E+00    5.4     0.00029338       -54.4303512220  1.65E-05
    43 Broy./Diag. 0.10E+00    5.4     0.00052510       -54.4303852046 -3.40E-05
    44 Broy./Diag. 0.10E+00    5.4     0.00091253       -54.4304029765 -1.78E-05
    45 Broy./Diag. 0.10E+00    5.4     0.00159323       -54.4304109131 -7.94E-06
    46 Broy./Diag. 0.10E+00    5.3     0.00278782       -54.4304222487 -1.13E-05
    47 Broy./Diag. 0.10E+00    5.3     0.00487549       -54.4304170892  5.16E-06
    48 Broy./Diag. 0.10E+00    5.3     0.00854620       -54.4303954969  2.16E-05
    49 Broy./Diag. 0.10E+00    5.5     0.01490416       -54.4303450877  5.04E-05
    50 Broy./Diag. 0.10E+00    5.4     0.02596234       -54.4302105182  1.35E-04
    51 Broy./Diag. 0.10E+00    5.4     0.04505524       -54.4299648132  2.46E-04
    52 Broy./Diag. 0.10E+00    5.4     0.07729060       -54.4298042380  1.61E-04
    53 Broy./Diag. 0.10E+00    5.4     0.12756193       -54.4292572881  5.47E-04
    54 Broy./Diag. 0.10E+00    5.4     0.19094911       -54.4272567524  2.00E-03
    55 Broy./Diag. 0.10E+00    5.3     0.22606637       -54.4215800072  5.68E-03
    56 Broy./Diag. 0.10E+00    5.3     0.35754937       -54.4080896045  1.35E-02
    57 Broy./Diag. 0.10E+00    5.4     0.38887360       -54.3840723844  2.40E-02
    58 Broy./Diag. 0.10E+00    5.5     0.30777096       -54.3558202975  2.83E-02
    59 Broy./Diag. 0.10E+00    5.4     0.19540698       -54.3314542945  2.44E-02
    60 Broy./Diag. 0.10E+00    5.4     0.15248235       -54.3148393618  1.66E-02
    61 Broy./Diag. 0.10E+00    5.4     0.12254371       -54.3056743398  9.17E-03
    62 Broy./Diag. 0.10E+00    5.4     0.09174448       -54.3009196478  4.75E-03
    63 Broy./Diag. 0.10E+00    5.4     0.06640849       -54.2986063686  2.31E-03
    64 Broy./Diag. 0.10E+00    5.4     0.04729259       -54.2986021619  4.21E-06
    65 Broy./Diag. 0.10E+00    5.5     0.03276570       -54.3139281271 -1.53E-02
    66 Broy./Diag. 0.10E+00    5.4     0.02232043       -54.3410975755 -2.72E-02
    67 Broy./Diag. 0.10E+00    5.3     0.01486542       -54.4037865353 -6.27E-02
    68 Broy./Diag. 0.10E+00    5.3     0.01651670       -54.5369927992 -1.33E-01
    69 Broy./Diag. 0.10E+00    5.3     0.03353369       -54.8237856670 -2.87E-01
    70 Broy./Diag. 0.10E+00    5.3     0.07358584       -55.1891197712 -3.65E-01
    71 Broy./Diag. 0.10E+00    5.3     0.20922574       -55.0076325022  1.81E-01
    72 Broy./Diag. 0.10E+00    5.4     0.22618290       -54.5822629446  4.25E-01

 *** WARNING in pw/ps_wavelet_methods.F:238 :: Density non-zero on the ***
 *** edges of the unit cell: wrong results in WAVELET solver           ***

    73 Broy./Diag. 0.10E+00    5.4     0.11385279       -54.5483253016  3.39E-02
    74 Broy./Diag. 0.10E+00    5.4     0.13920135       -54.6009623630 -5.26E-02
    75 Broy./Diag. 0.10E+00    5.4     0.07993083       -54.6491100747 -4.81E-02

 *** WARNING in pw/ps_wavelet_methods.F:238 :: Density non-zero on the ***
 *** edges of the unit cell: wrong results in WAVELET solver           ***

    76 Broy./Diag. 0.10E+00    5.4     0.06593337       -54.7228026705 -7.37E-02
    77 Broy./Diag. 0.10E+00    5.4     0.41118351       -54.5565499914  1.66E-01
    78 Broy./Diag. 0.10E+00    5.4     0.12467960       -54.5672612665 -1.07E-02
    79 Broy./Diag. 0.10E+00    5.4     0.19008899       -54.6239834576 -5.67E-02
    80 Broy./Diag. 0.10E+00    5.4     0.18798393       -54.7178243758 -9.38E-02
    81 Broy./Diag. 0.10E+00    5.4     0.25818658       -54.5163425622  2.01E-01
    82 Broy./Diag. 0.10E+00    5.3     0.38087680       -54.3979818290  1.18E-01
    83 Broy./Diag. 0.10E+00    5.3     0.38908466       -54.3353424127  6.26E-02
    84 Broy./Diag. 0.10E+00    5.3     0.23543616       -54.3166818179  1.87E-02
    85 Broy./Diag. 0.10E+00    5.3     0.08884430       -54.3178489357 -1.17E-03
    86 Broy./Diag. 0.10E+00    5.4     0.04978979       -54.3260397805 -8.19E-03
    87 Broy./Diag. 0.10E+00    5.5     0.06665099       -54.3232065872  2.83E-03
    88 Broy./Diag. 0.10E+00    5.4     0.07470170       -54.3460366746 -2.28E-02
    89 Broy./Diag. 0.10E+00    5.4     0.02236465       -54.4383731809 -9.23E-02
    90 Broy./Diag. 0.10E+00    5.4     0.02078452       -54.5211018667 -8.27E-02
    91 Broy./Diag. 0.10E+00    5.4     0.08568060       -54.5633394985 -4.22E-02
    92 Broy./Diag. 0.10E+00    5.3     0.21429061       -54.5836398101 -2.03E-02
    93 Broy./Diag. 0.10E+00    5.5     0.31629699       -54.6340963992 -5.05E-02
    94 Broy./Diag. 0.10E+00    5.3     0.30451150       -54.6458307043 -1.17E-02
    95 Broy./Diag. 0.10E+00    5.4     0.16222081       -54.6509347177 -5.10E-03
    96 Broy./Diag. 0.10E+00    5.4     0.22336801       -54.6851193011 -3.42E-02
    97 Broy./Diag. 0.10E+00    5.5     0.31328132       -54.6722411864  1.29E-02
    98 Broy./Diag. 0.10E+00    5.4     0.27292651       -54.6614994913  1.07E-02
    99 Broy./Diag. 0.10E+00    5.4     0.18635441       -54.6045611084  5.69E-02
   100 Broy./Diag. 0.10E+00    5.3     0.14859858       -54.5168626261  8.77E-02
   101 Broy./Diag. 0.10E+00    5.4     0.13944042       -54.4890076574  2.79E-02
   102 Broy./Diag. 0.10E+00    5.5     0.05488468       -54.5083302347 -1.93E-02
   103 Broy./Diag. 0.10E+00    5.4     0.02411706       -54.5190845463 -1.08E-02
   104 Broy./Diag. 0.10E+00    5.4     0.01471501       -54.5433268664 -2.42E-02
   105 Broy./Diag. 0.10E+00    5.4     0.02928759       -54.5473318259 -4.00E-03
   106 Broy./Diag. 0.10E+00    5.4     0.05223444       -54.5488991783 -1.57E-03
   107 Broy./Diag. 0.10E+00    5.4     0.08485635       -54.5418959635  7.00E-03
   108 Broy./Diag. 0.10E+00    5.5     0.13019765       -54.5413474333  5.49E-04
   109 Broy./Diag. 0.10E+00    5.5     0.17785531       -54.5346022036  6.75E-03
   110 Broy./Diag. 0.10E+00    5.6     0.29181227       -54.5315860471  3.02E-03
   111 Broy./Diag. 0.10E+00    5.4     0.35528762       -54.5358374187 -4.25E-03
   112 Broy./Diag. 0.10E+00    5.3     0.29439927       -54.5354558657  3.82E-04
   113 Broy./Diag. 0.10E+00    5.3     0.21719213       -54.5270024330  8.45E-03
   114 Broy./Diag. 0.10E+00    5.4     0.17723139       -54.5003884969  2.66E-02
   115 Broy./Diag. 0.10E+00    5.4     0.18076067       -54.4664620403  3.39E-02
   116 Broy./Diag. 0.10E+00    5.4     0.15445944       -54.4361758556  3.03E-02
   117 Broy./Diag. 0.10E+00    5.5     0.11638382       -54.4198989154  1.63E-02
   118 Broy./Diag. 0.10E+00    5.4     0.08893124       -54.3965697676  2.33E-02
   119 Broy./Diag. 0.10E+00    5.4     0.07279782       -54.3487326710  4.78E-02
   120 Broy./Diag. 0.10E+00    5.4     0.04276337       -54.3606918842 -1.20E-02
   121 Broy./Diag. 0.10E+00    5.4     0.02378302       -54.4658402027 -1.05E-01
   122 Broy./Diag. 0.10E+00    5.4     0.06449527       -54.5149414136 -4.91E-02
   123 Broy./Diag. 0.10E+00    5.4     0.05284290       -54.6539020375 -1.39E-01
   124 Broy./Diag. 0.10E+00    5.4     0.08921172       -54.7165614857 -6.27E-02
   125 Broy./Diag. 0.10E+00    5.4     0.17298674       -54.7204477342 -3.89E-03
   126 Broy./Diag. 0.10E+00    5.4     0.21713346       -54.6917687361  2.87E-02
   127 Broy./Diag. 0.10E+00    5.3     0.31585507       -54.6290120024  6.28E-02
   128 Broy./Diag. 0.10E+00    5.3     0.32741292       -54.5899047027  3.91E-02
   129 Broy./Diag. 0.10E+00    5.3     0.28601767       -54.5478358546  4.21E-02
   130 Broy./Diag. 0.10E+00    5.3     0.20347480       -54.5122612023  3.56E-02
   131 Broy./Diag. 0.10E+00    5.3     0.12147996       -54.4838569730  2.84E-02
   132 Broy./Diag. 0.10E+00    5.5     0.06597425       -54.4556707129  2.82E-02
   133 Broy./Diag. 0.10E+00    5.4     0.01969913       -54.4497773303  5.89E-03
   134 Broy./Diag. 0.10E+00    5.4     0.02758385       -54.4306702387  1.91E-02
   135 Broy./Diag. 0.10E+00    5.4     0.03126729       -54.4024869558  2.82E-02
   136 Broy./Diag. 0.10E+00    5.4     0.03295787       -54.4045423620 -2.06E-03
   137 Broy./Diag. 0.10E+00    5.4     0.20456050       -54.4858861171 -8.13E-02
   138 Broy./Diag. 0.10E+00    5.4     0.48361007       -54.5486347577 -6.27E-02
   139 Broy./Diag. 0.10E+00    5.4     0.46639037       -54.5738697465 -2.52E-02
   140 Broy./Diag. 0.10E+00    5.4     0.23990541       -54.5342653842  3.96E-02
   141 Broy./Diag. 0.10E+00    5.4     0.09548522       -54.4712601275  6.30E-02
   142 Broy./Diag. 0.10E+00    5.3     0.04961469       -54.4590549019  1.22E-02
   143 Broy./Diag. 0.10E+00    5.3     0.12205189       -54.4745023455 -1.54E-02
   144 Broy./Diag. 0.10E+00    5.3     0.28041842       -54.4983093397 -2.38E-02
   145 Broy./Diag. 0.10E+00    5.3     0.38573524       -54.5030442080 -4.73E-03
   146 Broy./Diag. 0.10E+00    5.4     0.36740988       -54.4797386223  2.33E-02
   147 Broy./Diag. 0.10E+00    5.4     0.15353897       -54.4699636425  9.77E-03
   148 Broy./Diag. 0.10E+00    5.4     0.05797027       -54.4550266925  1.49E-02
   149 Broy./Diag. 0.10E+00    5.4     0.12669766       -54.4991827705 -4.42E-02
   150 Broy./Diag. 0.10E+00    5.4     0.21942398       -54.5203262339 -2.11E-02
   151 Broy./Diag. 0.10E+00    5.4     0.36949789       -54.5196108561  7.15E-04
   152 Broy./Diag. 0.10E+00    5.4     0.37612855       -54.5101412768  9.47E-03
   153 Broy./Diag. 0.10E+00    5.4     0.22404510       -54.4901982907  1.99E-02
   154 Broy./Diag. 0.10E+00    5.4     0.02450283       -54.4511332079  3.91E-02
   155 Broy./Diag. 0.10E+00    5.4     0.15793153       -54.4577278284 -6.59E-03
   156 Broy./Diag. 0.10E+00    5.3     0.39091444       -54.4578226240 -9.48E-05
   157 Broy./Diag. 0.10E+00    5.3     0.49941043       -54.4813631502 -2.35E-02
   158 Broy./Diag. 0.10E+00    5.3     0.34254749       -54.4762730216  5.09E-03
   159 Broy./Diag. 0.10E+00    5.3     0.27879943       -54.4476722123  2.86E-02
   160 Broy./Diag. 0.10E+00    5.3     0.21812858       -54.4273872877  2.03E-02
   161 Broy./Diag. 0.10E+00    5.3     0.15401766       -54.4309162387 -3.53E-03
   162 Broy./Diag. 0.10E+00    5.3     0.12412671       -54.4589726166 -2.81E-02
   163 Broy./Diag. 0.10E+00    5.4     0.09705361       -54.4886082289 -2.96E-02
   164 Broy./Diag. 0.10E+00    5.4     0.04084029       -54.4958494502 -7.24E-03
   165 Broy./Diag. 0.10E+00    5.4     0.02987878       -54.5038488659 -8.00E-03
   166 Broy./Diag. 0.10E+00    5.4     0.09775032       -54.5320881610 -2.82E-02
   167 Broy./Diag. 0.10E+00    5.4     0.16728212       -54.5680510376 -3.60E-02
   168 Broy./Diag. 0.10E+00    5.4     0.28181793       -54.5914730955 -2.34E-02
   169 Broy./Diag. 0.10E+00    5.5     0.32957416       -54.6025556336 -1.11E-02
   170 Broy./Diag. 0.10E+00    5.3     0.17910325       -54.5895375760  1.30E-02
   171 Broy./Diag. 0.10E+00    5.3     0.06302095       -54.5641190944  2.54E-02
   172 Broy./Diag. 0.10E+00    5.3     0.21157851       -54.5837171501 -1.96E-02
   173 Broy./Diag. 0.10E+00    5.3     0.01294041       -54.6201227201 -3.64E-02
   174 Broy./Diag. 0.10E+00    5.3     0.01086246       -54.6471371301 -2.70E-02
   175 Broy./Diag. 0.10E+00    5.3     0.22018264       -54.6253911794  2.17E-02
   176 Broy./Diag. 0.10E+00    5.4     0.28207949       -54.6429728350 -1.76E-02
   177 Broy./Diag. 0.10E+00    5.4     0.36670936       -54.6562411784 -1.33E-02
   178 Broy./Diag. 0.10E+00    5.4     0.26502744       -54.6846942107 -2.85E-02
   179 Broy./Diag. 0.10E+00    5.5     0.02342999       -54.6443830931  4.03E-02
   180 Broy./Diag. 0.10E+00    5.4     0.18612698       -54.5857771783  5.86E-02
   181 Broy./Diag. 0.10E+00    5.5     0.35892293       -54.5862450179 -4.68E-04
   182 Broy./Diag. 0.10E+00    5.3     0.43397543       -54.6058011884 -1.96E-02
   183 Broy./Diag. 0.10E+00    5.3     0.32224499       -54.6183133548 -1.25E-02
   184 Broy./Diag. 0.10E+00    5.3     0.21157009       -54.6106862693  7.63E-03
   185 Broy./Diag. 0.10E+00    5.4     0.14061226       -54.6136811214 -2.99E-03
   186 Broy./Diag. 0.10E+00    5.4     0.07165992       -54.6226416954 -8.96E-03
   187 Broy./Diag. 0.10E+00    5.5     0.04337994       -54.6364657427 -1.38E-02
   188 Broy./Diag. 0.10E+00    5.4     0.02341427       -54.6364815559 -1.58E-05
   189 Broy./Diag. 0.10E+00    5.4     0.08594709       -54.5921049075  4.44E-02
   190 Broy./Diag. 0.10E+00    5.3     0.21368402       -54.5633656777  2.87E-02
   191 Broy./Diag. 0.10E+00    5.3     0.25107260       -54.6401229516 -7.68E-02
   192 Broy./Diag. 0.10E+00    5.4     0.42861803       -54.6078529843  3.23E-02
   193 Broy./Diag. 0.10E+00    5.4     0.38199862       -54.5534507729  5.44E-02
   194 Broy./Diag. 0.10E+00    5.4     0.22236505       -54.4847005001  6.88E-02
   195 Broy./Diag. 0.10E+00    5.4     0.09687858       -54.4743972546  1.03E-02
   196 Broy./Diag. 0.10E+00    5.4     0.03975384       -54.4972541072 -2.29E-02
   197 Broy./Diag. 0.10E+00    5.4     0.02470194       -54.5128132783 -1.56E-02
   198 Broy./Diag. 0.10E+00    5.3     0.06626691       -54.5328788712 -2.01E-02
   199 Broy./Diag. 0.10E+00    5.4     0.07506279       -54.5557144713 -2.28E-02
   200 Broy./Diag. 0.10E+00    5.3     0.02718204       -54.5792704353 -2.36E-02
   201 Broy./Diag. 0.10E+00    5.4     0.05297828       -54.6400683158 -6.08E-02
   202 Broy./Diag. 0.10E+00    5.4     0.03207421       -54.7214245447 -8.14E-02
   203 Broy./Diag. 0.10E+00    5.4     0.32518546       -54.8562620575 -1.35E-01
   204 Broy./Diag. 0.10E+00    5.5     0.46300816       -54.9415176501 -8.53E-02
   205 Broy./Diag. 0.10E+00    5.3     0.32414859       -54.9328785730  8.64E-03
   206 Broy./Diag. 0.10E+00    5.3     0.22260697       -54.8647168657  6.82E-02
   207 Broy./Diag. 0.10E+00    5.3     0.38164202       -54.8913599632 -2.66E-02
   208 Broy./Diag. 0.10E+00    5.4     0.35039036       -54.9231180362 -3.18E-02
   209 Broy./Diag. 0.10E+00    5.4     0.21424788       -54.9043632968  1.88E-02
   210 Broy./Diag. 0.10E+00    5.5     0.17789581       -54.8717750937  3.26E-02
   211 Broy./Diag. 0.10E+00    5.4     0.16481440       -54.7351692837  1.37E-01
   212 Broy./Diag. 0.10E+00    5.4     0.10745559       -54.6118117024  1.23E-01
   213 Broy./Diag. 0.10E+00    5.4     0.04637126       -54.5094659043  1.02E-01
   214 Broy./Diag. 0.10E+00    5.4     0.04259987       -54.4849958291  2.45E-02
   215 Broy./Diag. 0.10E+00    5.4     0.07633357       -54.4863002225 -1.30E-03
   216 Broy./Diag. 0.10E+00    5.4     0.12724970       -54.4793350864  6.97E-03
   217 Broy./Diag. 0.10E+00    5.5     0.18364866       -54.4736658720  5.67E-03
   218 Broy./Diag. 0.10E+00    5.4     0.22753133       -54.4741588645 -4.93E-04
   219 Broy./Diag. 0.10E+00    5.3     0.31648166       -54.4824132180 -8.25E-03
   220 Broy./Diag. 0.10E+00    5.4     0.33666547       -54.5035058061 -2.11E-02
   221 Broy./Diag. 0.10E+00    5.3     0.21033233       -54.5100283284 -6.52E-03
   222 Broy./Diag. 0.10E+00    5.3     0.10612919       -54.5371694643 -2.71E-02
   223 Broy./Diag. 0.10E+00    5.4     0.11000065       -54.5674380537 -3.03E-02
   224 Broy./Diag. 0.10E+00    5.4     0.12349864       -54.5702736718 -2.84E-03
   225 Broy./Diag. 0.10E+00    5.4     0.13296758       -54.5600848803  1.02E-02
   226 Broy./Diag. 0.10E+00    5.5     0.22021060       -54.5459649679  1.41E-02
   227 Broy./Diag. 0.10E+00    5.4     0.31577211       -54.5428015006  3.16E-03
   228 Broy./Diag. 0.10E+00    5.4     0.30124183       -54.6454780744 -1.03E-01
   229 Broy./Diag. 0.10E+00    5.4     0.09059167       -54.5856856757  5.98E-02
   230 Broy./Diag. 0.10E+00    5.4     0.02435343       -54.5391273017  4.66E-02
   231 Broy./Diag. 0.10E+00    5.4     0.10356312       -54.5243074128  1.48E-02
   232 Broy./Diag. 0.10E+00    5.3     0.16881094       -54.5209088078  3.40E-03
   233 Broy./Diag. 0.10E+00    5.4     0.22970027       -54.5312784438 -1.04E-02
   234 Broy./Diag. 0.10E+00    5.3     0.29548156       -54.5492455924 -1.80E-02
   235 Broy./Diag. 0.10E+00    5.3     0.38091680       -54.5385352456  1.07E-02
   236 Broy./Diag. 0.10E+00    5.3     0.29988224       -54.5339811803  4.55E-03
   237 Broy./Diag. 0.10E+00    5.3     0.06649133       -54.5498960631 -1.59E-02
   238 Broy./Diag. 0.10E+00    5.3     0.23459823       -54.5850099212 -3.51E-02
   239 Broy./Diag. 0.10E+00    5.4     0.47144610       -54.6269747816 -4.20E-02
   240 Broy./Diag. 0.10E+00    5.4     0.38165142       -54.6617090286 -3.47E-02
   241 Broy./Diag. 0.10E+00    5.4     0.25543183       -54.6822210849 -2.05E-02
   242 Broy./Diag. 0.10E+00    5.4     0.18707730       -54.7180242010 -3.58E-02
   243 Broy./Diag. 0.10E+00    5.5     0.12709771       -54.7314918188 -1.35E-02
   244 Broy./Diag. 0.10E+00    5.4     0.10924918       -54.6648364742  6.67E-02
   245 Broy./Diag. 0.10E+00    5.4     0.14475503       -54.5416388835  1.23E-01
   246 Broy./Diag. 0.10E+00    5.4     0.17943951       -54.5381194098  3.52E-03
   247 Broy./Diag. 0.10E+00    5.4     0.20378092       -54.5361377756  1.98E-03
   248 Broy./Diag. 0.10E+00    5.5     0.24244762       -54.5248198683  1.13E-02
   249 Broy./Diag. 0.10E+00    5.4     0.29410121       -54.5131676409  1.17E-02
   250 Broy./Diag. 0.10E+00    5.3     0.29574847       -54.4937954726  1.94E-02
   251 Broy./Diag. 0.10E+00    5.3     0.26885326       -54.4675806419  2.62E-02
   252 Broy./Diag. 0.10E+00    5.3     0.15333170       -54.4601318944  7.45E-03
   253 Broy./Diag. 0.10E+00    5.4     0.07799100       -54.4585135453  1.62E-03
   254 Broy./Diag. 0.10E+00    5.4     0.09898696       -54.4980417247 -3.95E-02
   255 Broy./Diag. 0.10E+00    5.5     0.22447535       -54.5376979569 -3.97E-02
   256 Broy./Diag. 0.10E+00    5.4     0.34724521       -54.5654000897 -2.77E-02
   257 Broy./Diag. 0.10E+00    5.5     0.35483352       -54.6012696383 -3.59E-02
   258 Broy./Diag. 0.10E+00    5.3     0.23795872       -54.6981241736 -9.69E-02
   259 Broy./Diag. 0.10E+00    5.3     0.11313322       -54.8662350384 -1.68E-01
   260 Broy./Diag. 0.10E+00    5.3     0.08338837       -54.9325842273 -6.63E-02
   261 Broy./Diag. 0.10E+00    5.5     0.07010159       -54.7651120885  1.67E-01
   262 Broy./Diag. 0.10E+00    5.5     0.36570789       -54.5245855429  2.41E-01
   263 Broy./Diag. 0.10E+00    5.5     0.46189263       -54.4148393465  1.10E-01
   264 Broy./Diag. 0.10E+00    5.4     0.34638842       -54.3804116732  3.44E-02
   265 Broy./Diag. 0.10E+00    5.4     0.19034473       -54.3647206832  1.57E-02
   266 Broy./Diag. 0.10E+00    5.3     0.17795459       -54.3216193726  4.31E-02
   267 Broy./Diag. 0.10E+00    5.3     0.07539822       -54.2734689521  4.82E-02
   268 Broy./Diag. 0.10E+00    5.4     0.21757565       -54.1978255339  7.56E-02
   269 Broy./Diag. 0.10E+00    5.4     0.15896693       -54.2492197410 -5.14E-02
   270 Broy./Diag. 0.10E+00    5.5     0.03792696       -54.3892586752 -1.40E-01
   271 Broy./Diag. 0.10E+00    5.4     0.11934974       -54.4920055610 -1.03E-01
   272 Broy./Diag. 0.10E+00    5.4     0.16012079       -54.5178613505 -2.59E-02
   273 Broy./Diag. 0.10E+00    5.4     0.05465824       -54.4845724495  3.33E-02
   274 Broy./Diag. 0.10E+00    5.3     0.02681788       -54.4827671869  1.81E-03
   275 Broy./Diag. 0.10E+00    5.3     0.06408639       -54.4499495283  3.28E-02
   276 Broy./Diag. 0.10E+00    5.3     0.10464513       -54.4511121085 -1.16E-03
   277 Broy./Diag. 0.10E+00    5.4     0.19249064       -54.4527626482 -1.65E-03
   278 Broy./Diag. 0.10E+00    5.4     0.27769431       -54.4528892849 -1.27E-04
   279 Broy./Diag. 0.10E+00    5.4     0.34530023       -54.4500670496  2.82E-03
   280 Broy./Diag. 0.10E+00    5.4     0.28476550       -54.4543344102 -4.27E-03
   281 Broy./Diag. 0.10E+00    5.4     0.18807401       -54.4493845211  4.95E-03
   282 Broy./Diag. 0.10E+00    5.4     0.24831250       -54.4046704524  4.47E-02
   283 Broy./Diag. 0.10E+00    5.4     0.23711635       -54.3458195735  5.89E-02
   284 Broy./Diag. 0.10E+00    5.4     0.15355722       -54.3216288775  2.42E-02
   285 Broy./Diag. 0.10E+00    5.4     0.11426601       -54.3321764161 -1.05E-02
   286 Broy./Diag. 0.10E+00    5.4     0.09696375       -54.3227079938  9.47E-03
   287 Broy./Diag. 0.10E+00    5.4     0.13776746       -54.3165191599  6.19E-03
   288 Broy./Diag. 0.10E+00    5.3     0.16181722       -54.3183861392 -1.87E-03
   289 Broy./Diag. 0.10E+00    5.4     0.18215063       -54.3739787836 -5.56E-02
   290 Broy./Diag. 0.10E+00    5.3     0.26014752       -54.4693620729 -9.54E-02
   291 Broy./Diag. 0.10E+00    5.3     0.21653802       -54.5667763634 -9.74E-02
   292 Broy./Diag. 0.10E+00    5.3     0.13613704       -54.6082163063 -4.14E-02
   293 Broy./Diag. 0.10E+00    5.4     0.05463585       -54.6271055767 -1.89E-02
   294 Broy./Diag. 0.10E+00    5.4     0.19128881       -54.6561736931 -2.91E-02
   295 Broy./Diag. 0.10E+00    5.4     0.31437005       -54.6839390535 -2.78E-02
   296 Broy./Diag. 0.10E+00    5.4     0.22093749       -54.7095047540 -2.56E-02
   297 Broy./Diag. 0.10E+00    5.5     0.37284975       -54.6215178610  8.80E-02
   298 Broy./Diag. 0.10E+00    5.3     0.50559999       -54.6303426745 -8.82E-03
   299 Broy./Diag. 0.10E+00    5.4     0.38603439       -54.5870001146  4.33E-02
   300 Broy./Diag. 0.10E+00    5.4     0.19173247       -54.5068986476  8.01E-02
   301 Broy./Diag. 0.10E+00    5.4     0.11294206       -54.4829859573  2.39E-02
   302 Broy./Diag. 0.10E+00    5.4     0.08334950       -54.5563473418 -7.34E-02
   303 Broy./Diag. 0.10E+00    5.4     0.06569049       -54.5651614658 -8.81E-03
   304 Broy./Diag. 0.10E+00    5.5     0.05324064       -54.5321935183  3.30E-02
   305 Broy./Diag. 0.10E+00    5.4     0.04924225       -54.3975838893  1.35E-01
   306 Broy./Diag. 0.10E+00    5.3     0.03863036       -54.4042074074 -6.62E-03
   307 Broy./Diag. 0.10E+00    5.4     0.07152138       -54.4083129439 -4.11E-03
   308 Broy./Diag. 0.10E+00    5.4     0.04591568       -54.4542630712 -4.60E-02
   309 Broy./Diag. 0.10E+00    5.4     0.03225017       -54.4743405159 -2.01E-02
   310 Broy./Diag. 0.10E+00    5.4     0.00693889       -54.4590888940  1.53E-02
   311 Broy./Diag. 0.10E+00    5.3     0.02851487       -54.4440443107  1.50E-02
   312 Broy./Diag. 0.10E+00    5.4     0.01720862       -54.4434263937  6.18E-04
   313 Broy./Diag. 0.10E+00    5.4     0.00359779       -54.4463174326 -2.89E-03
   314 Broy./Diag. 0.10E+00    5.4     0.00631665       -54.4446043690  1.71E-03
[...]
   418 Broy./Diag. 0.10E+00    5.4     0.25537518       -54.3870236260  3.60E-02
   419 Broy./Diag. 0.10E+00    5.4     0.20152984       -54.3623738707  2.46E-02
   420 Broy./Diag. 0.10E+00    5.4     0.13099083       -54.3565561013  5.82E-03
   421 Broy./Diag. 0.10E+00    5.5     0.12196218       -54.3874437848 -3.09E-02
   422 Broy./Diag. 0.10E+00    5.4     0.11425298       -54.4108294492 -2.34E-02
   423 Broy./Diag. 0.10E+00    5.4     0.12217421       -54.4326625051 -2.18E-02
   424 Broy./Diag. 0.10E+00    5.3     0.14459427       -54.4437625392 -1.11E-02
   425 Broy./Diag. 0.10E+00    5.4     0.15189034       -54.4323617459  1.14E-02
   426 Broy./Diag. 0.10E+00    5.4     0.20960538       -54.4119878728  2.04E-02
   427 Broy./Diag. 0.10E+00    5.4     0.23575129       -54.4007102837  1.13E-02
   428 Broy./Diag. 0.10E+00    5.4     0.21978383       -54.3910070810  9.70E-03
   429 Broy./Diag. 0.10E+00    5.4     0.36436843       -54.4503715841 -5.94E-02
   430 Broy./Diag. 0.10E+00    5.3     0.14203761       -54.5093611382 -5.90E-02
   431 Broy./Diag. 0.10E+00    5.3     0.03637006       -54.4959852738  1.34E-02
   432 Broy./Diag. 0.10E+00    5.3     0.02380907       -54.5231543366 -2.72E-02
   433 Broy./Diag. 0.10E+00    5.4     0.02088757       -54.5565903380 -3.34E-02
   434 Broy./Diag. 0.10E+00    5.3     0.06372530       -54.5749820079 -1.84E-02
   435 Broy./Diag. 0.10E+00    5.4     0.14921655       -54.5606204651  1.44E-02
   436 Broy./Diag. 0.10E+00    5.4     0.19539306       -54.5442141572  1.64E-02
   437 Broy./Diag. 0.10E+00    5.4     0.14008951       -54.5281364323  1.61E-02
   438 Broy./Diag. 0.10E+00    5.5     0.03472100       -54.4968134982  3.13E-02
   439 Broy./Diag. 0.10E+00    5.4     0.01587507       -54.4623839709  3.44E-02
   440 Broy./Diag. 0.10E+00    5.4     0.01462394       -54.4372202553  2.52E-02
   441 Broy./Diag. 0.10E+00    5.4     0.15411680       -54.4320034601  5.22E-03
   442 Broy./Diag. 0.10E+00    5.3     0.20748544       -54.4356136662 -3.61E-03
   443 Broy./Diag. 0.10E+00    5.4     0.24571835       -54.4292177369  6.40E-03
   444 Broy./Diag. 0.10E+00    5.4     0.28432248       -54.4204349126  8.78E-03
   445 Broy./Diag. 0.10E+00    5.4     0.38295633       -54.3893688284  3.11E-02
   446 Broy./Diag. 0.10E+00    5.4     0.36273581       -54.3743583196  1.50E-02
   447 Broy./Diag. 0.10E+00    5.3     0.24810018       -54.3525125202  2.18E-02
   448 Broy./Diag. 0.10E+00    5.3     0.14332653       -54.3327480952  1.98E-02
   449 Broy./Diag. 0.10E+00    5.4     0.11426935       -54.3072202267  2.55E-02
   450 Broy./Diag. 0.10E+00    5.3     0.07081474       -54.2915857214  1.56E-02
   451 Broy./Diag. 0.10E+00    5.3     0.06823956       -54.3003799940 -8.79E-03
   452 Broy./Diag. 0.10E+00    5.3     0.09377511       -54.3390825405 -3.87E-02
   453 Broy./Diag. 0.10E+00    5.3     0.14659183       -54.4105412813 -7.15E-02
   454 Broy./Diag. 0.10E+00    5.3     0.21067339       -54.4539509730 -4.34E-02
   455 Broy./Diag. 0.10E+00    5.4     0.25130472       -54.4453665832  8.58E-03
   456 Broy./Diag. 0.10E+00    5.4     0.20198488       -54.4165078411  2.89E-02
   457 Broy./Diag. 0.10E+00    5.4     0.15322363       -54.4633260281 -4.68E-02
   458 Broy./Diag. 0.10E+00    5.4     0.08190986       -54.5434487559 -8.01E-02
   459 Broy./Diag. 0.10E+00    5.4     0.04951213       -54.5681408844 -2.47E-02
   460 Broy./Diag. 0.10E+00    5.4     0.08311937       -54.6092735250 -4.11E-02
   461 Broy./Diag. 0.10E+00    5.4     0.08778281       -54.6485731699 -3.93E-02
   462 Broy./Diag. 0.10E+00    5.5     0.18540377       -54.5712266546  7.73E-02
   463 Broy./Diag. 0.10E+00    5.4     0.10577398       -54.4910142884  8.02E-02
   464 Broy./Diag. 0.10E+00    5.3     0.10149572       -54.4569630684  3.41E-02
   465 Broy./Diag. 0.10E+00    5.3     0.11575022       -54.4832390213 -2.63E-02
   466 Broy./Diag. 0.10E+00    5.3     0.22748649       -54.4786062621  4.63E-03
   467 Broy./Diag. 0.10E+00    5.3     0.34816906       -54.4736293826  4.98E-03
   468 Broy./Diag. 0.10E+00    5.3     0.36527366       -54.4648417761  8.79E-03
   469 Broy./Diag. 0.10E+00    5.3     0.26796021       -54.4498949691  1.49E-02
   470 Broy./Diag. 0.10E+00    5.3     0.20570755       -54.3964570534  5.34E-02
   471 Broy./Diag. 0.10E+00    5.3     0.20253967       -54.3484587667  4.80E-02
   472 Broy./Diag. 0.10E+00    5.5     0.15788475       -54.3338295081  1.46E-02
   473 Broy./Diag. 0.10E+00    5.4     0.09764158       -54.3199608131  1.39E-02
   474 Broy./Diag. 0.10E+00    5.4     0.17298912       -54.3138110254  6.15E-03
   475 Broy./Diag. 0.10E+00    5.4     0.18306629       -54.2970137385  1.68E-02
   476 Broy./Diag. 0.10E+00    5.4     0.17845116       -54.2899303445  7.08E-03
   477 Broy./Diag. 0.10E+00    5.4     0.17386088       -54.3228170584 -3.29E-02
   478 Broy./Diag. 0.10E+00    5.4     0.17761552       -54.4129430426 -9.01E-02
   479 Broy./Diag. 0.10E+00    5.4     0.16169486       -54.4843975312 -7.15E-02
   480 Broy./Diag. 0.10E+00    5.4     0.09986965       -54.5348922121 -5.05E-02
   481 Broy./Diag. 0.10E+00    5.4     0.07413173       -54.5725331363 -3.76E-02
   482 Broy./Diag. 0.10E+00    5.3     0.02457882       -54.5875070131 -1.50E-02
   483 Broy./Diag. 0.10E+00    5.3     0.00961207       -54.6314262438 -4.39E-02
   484 Broy./Diag. 0.10E+00    5.3     0.02667358       -54.6518189174 -2.04E-02
   485 Broy./Diag. 0.10E+00    5.4     0.09297169       -54.6001678470  5.17E-02
   486 Broy./Diag. 0.10E+00    5.5     0.08759372       -54.5103920638  8.98E-02
   487 Broy./Diag. 0.10E+00    5.4     0.10392050       -54.4836566415  2.67E-02
   488 Broy./Diag. 0.10E+00    5.4     0.22718687       -54.4370510315  4.66E-02
   489 Broy./Diag. 0.10E+00    5.4     0.37135982       -54.4252166255  1.18E-02
   490 Broy./Diag. 0.10E+00    5.4     0.38163032       -54.4149928257  1.02E-02
   491 Broy./Diag. 0.10E+00    5.3     0.29690904       -54.3870876810  2.79E-02
   492 Broy./Diag. 0.10E+00    5.4     0.19320054       -54.3477867671  3.93E-02
   493 Broy./Diag. 0.10E+00    5.4     0.15210927       -54.2785452852  6.92E-02
   494 Broy./Diag. 0.10E+00    5.4     0.14326713       -54.2610985207  1.74E-02
   495 Broy./Diag. 0.10E+00    5.4     0.11384070       -54.2683838654 -7.29E-03
   496 Broy./Diag. 0.10E+00    5.4     0.16150084       -54.2956194146 -2.72E-02
   497 Broy./Diag. 0.10E+00    5.4     0.16773307       -54.3040654707 -8.45E-03
   498 Broy./Diag. 0.10E+00    5.4     0.16057894       -54.3237205614 -1.97E-02
   499 Broy./Diag. 0.10E+00    5.4     0.17371542       -54.3955795065 -7.19E-02
   500 Broy./Diag. 0.10E+00    5.4     0.14511974       -54.4792145336 -8.36E-02

  Leaving inner SCF loop after reaching   500 steps.


  Electronic density on regular grids:         -6.1197580586        1.8802419414
  Core density on regular grids:                1.0000000000       -7.0000000000
  Hard and soft densities (Lebedev):          -10.3499536354       -8.4687231750
  Total Rho_soft + Rho1_hard - Rho1_soft       -8.0009885190
  Total charge density (r-space):              -7.0009885190
  Total Rho_soft + Rho0_soft (g-space):        -0.0009885324

  Overlap energy of the core charge distribution:               0.00000008866015
  Self energy of the core charge distribution:                -49.21005070205399
  Core Hamiltonian energy:                                     -6.68236106012547
  Hartree energy:                                              17.95353045087814
  Exchange-correlation energy:                                 -2.20453025044549
  Hartree-Fock Exchange energy:                                -1.70869815041268

  GAPW| Exc from hard and soft atomic rho1:                    -3.13826364563514
  GAPW| local Eh = 1 center integrals:                         -9.48884126443357

  Total energy:                                               -54.47921453356805

 *******************************************************************************
 *   ___                                                                       *
 *  /   \                                                                      *
 * [ABORT]                                                                     *
 *  \___/     SCF run NOT converged. To continue the calculation regardless,   *
 *    |             please set the keyword IGNORE_CONVERGENCE_FAILURE.         *
 *  O/|                                                                        *
 * /| |                                                                        *
 * / \                                                            qs_scf.F:611 *
 *******************************************************************************


 ===== Routine Calling Stack ===== 

            3 scf_env_do_scf
            2 qs_energies
            1 CP2K

 *******************************************************************************
 *   ___                                                                       *
 *  /   \                                                                      *
 * [ABORT]                                                                     *
 *  \___/     SCF run NOT converged. To continue the calculation regardless,   *
 *    |             please set the keyword IGNORE_CONVERGENCE_FAILURE.         *
 *  O/|                                                                        *
 * /| |                                                                        *
 * / \                                                            qs_scf.F:611 *
 *******************************************************************************


 ===== Routine Calling Stack ===== 

            3 scf_env_do_scf
            2 qs_energies
            1 CP2K

 *******************************************************************************
 *   ___                                                                       *
 *  /   \                                                                      *
 * [ABORT]                                                                     *
 *  \___/     SCF run NOT converged. To continue the calculation regardless,   *
 *    |             please set the keyword IGNORE_CONVERGENCE_FAILURE.         *
 *  O/|                                                                        *
 * /| |                                                                        *
 * / \                                                            qs_scf.F:611 *
 *******************************************************************************


 ===== Routine Calling Stack ===== 

            3 scf_env_do_scf
            2 qs_energies
            1 CP2K

 *******************************************************************************
 *   ___                                                                       *
 *  /   \                                                                      *
 * [ABORT]                                                                     *
 *  \___/     SCF run NOT converged. To continue the calculation regardless,   *
 *    |             please set the keyword IGNORE_CONVERGENCE_FAILURE.         *
 *  O/|                                                                        *
 * /| |                                                                        *
 * / \                                                            qs_scf.F:611 *
 *******************************************************************************


 ===== Routine Calling Stack ===== 

            3 scf_env_do_scf
            2 qs_energies
            1 CP2K

 *******************************************************************************
 *   ___                                                                       *
 *  /   \                                                                      *
 * [ABORT]                                                                     *
 *  \___/     SCF run NOT converged. To continue the calculation regardless,   *
 *    |             please set the keyword IGNORE_CONVERGENCE_FAILURE.         *
 *  O/|                                                                        *
 * /| |                                                                        *
 * / \                                                            qs_scf.F:611 *
 *******************************************************************************


 ===== Routine Calling Stack ===== 

            3 scf_env_do_scf
            2 qs_energies
            1 CP2K

 *******************************************************************************
 *   ___                                                                       *
 *  /   \                                                                      *
 * [ABORT]                                                                     *
 *  \___/     SCF run NOT converged. To continue the calculation regardless,   *
 *    |             please set the keyword IGNORE_CONVERGENCE_FAILURE.         *
 *  O/|                                                                        *
 * /| |                                                                        *
 * / \                                                            qs_scf.F:611 *
 *******************************************************************************


 ===== Routine Calling Stack ===== 

            3 scf_env_do_scf
            2 qs_energies
            1 CP2K

 *******************************************************************************
 *   ___                                                                       *
 *  /   \                                                                      *
 * [ABORT]                                                                     *
 *  \___/     SCF run NOT converged. To continue the calculation regardless,   *
 *    |             please set the keyword IGNORE_CONVERGENCE_FAILURE.         *
 *  O/|                                                                        *
 * /| |                                                                        *
 * / \                                                            qs_scf.F:611 *
 *******************************************************************************


 ===== Routine Calling Stack ===== 

            3 scf_env_do_scf
            2 qs_energies
            1 CP2K

 *******************************************************************************
 *   ___                                                                       *
 *  /   \                                                                      *
 * [ABORT]                                                                     *
 *  \___/     SCF run NOT converged. To continue the calculation regardless,   *
 *    |             please set the keyword IGNORE_CONVERGENCE_FAILURE.         *
 *  O/|                                                                        *
 * /| |                                                                        *
 * / \                                                            qs_scf.F:611 *
 *******************************************************************************


 ===== Routine Calling Stack ===== 

            3 scf_env_do_scf
            2 qs_energies
            1 CP2K

 *******************************************************************************
 *   ___                                                                       *
 *  /   \                                                                      *
 * [ABORT]                                                                     *
 *  \___/     SCF run NOT converged. To continue the calculation regardless,   *
 *    |             please set the keyword IGNORE_CONVERGENCE_FAILURE.         *
 *  O/|                                                                        *
 * /| |                                                                        *
 * / \                                                            qs_scf.F:611 *
 *******************************************************************************


 ===== Routine Calling Stack ===== 

            3 scf_env_do_scf
            2 qs_energies
            1 CP2K

 *******************************************************************************
 *   ___                                                                       *
 *  /   \                                                                      *
 * [ABORT]                                                                     *
 *  \___/     SCF run NOT converged. To continue the calculation regardless,   *
 *    |             please set the keyword IGNORE_CONVERGENCE_FAILURE.         *
 *  O/|                                                                        *
 * /| |                                                                        *
 * / \                                                            qs_scf.F:611 *
 *******************************************************************************


 ===== Routine Calling Stack ===== 

            3 scf_env_do_scf
            2 qs_energies
            1 CP2K

 *******************************************************************************
 *   ___                                                                       *
 *  /   \                                                                      *
 * [ABORT]                                                                     *
 *  \___/     SCF run NOT converged. To continue the calculation regardless,   *
 *    |             please set the keyword IGNORE_CONVERGENCE_FAILURE.         *
 *  O/|                                                                        *
 * /| |                                                                        *
 * / \                                                            qs_scf.F:611 *
 *******************************************************************************


 ===== Routine Calling Stack ===== 

            3 scf_env_do_scf
            2 qs_energies
            1 CP2K

 *******************************************************************************
 *   ___                                                                       *
 *  /   \                                                                      *
 * [ABORT]                                                                     *
 *  \___/     SCF run NOT converged. To continue the calculation regardless,   *
 *    |             please set the keyword IGNORE_CONVERGENCE_FAILURE.         *
 *  O/|                                                                        *
 * /| |                                                                        *
 * / \                                                            qs_scf.F:611 *
 *******************************************************************************


 ===== Routine Calling Stack ===== 

            3 scf_env_do_scf
            2 qs_energies
            1 CP2K

 *******************************************************************************
 *   ___                                                                       *
 *  /   \                                                                      *
 * [ABORT]                                                                     *
 *  \___/     SCF run NOT converged. To continue the calculation regardless,   *
 *    |             please set the keyword IGNORE_CONVERGENCE_FAILURE.         *
 *  O/|                                                                        *
 * /| |                                                                        *
 * / \                                                            qs_scf.F:611 *
 *******************************************************************************


 ===== Routine Calling Stack ===== 

            3 scf_env_do_scf
            2 qs_energies
            1 CP2K
