 DBCSR| CPU Multiplication driver                                           BLAS (U)
 DBCSR| Multrec recursion limit                                              512 (U)
 DBCSR| Multiplication stack size                                           1000 (D)
 DBCSR| Maximum elements for images                                    UNLIMITED (U)
 DBCSR| Multiplicative factor virtual images                                   1 (U)
 DBCSR| Use multiplication densification                                       T (D)
 DBCSR| Multiplication size stacks                                             3 (U)
 DBCSR| Use memory pool for CPU allocation                                     F (U)
 DBCSR| Number of 3D layers                                               SINGLE (U)
 DBCSR| Use MPI memory allocation                                              F (U)
 DBCSR| Use RMA algorithm                                                      F (U)
 DBCSR| Use Communication thread                                               T (U)
 DBCSR| Communication thread load                                             75 (D)
 DBCSR| MPI: My process id                                                     0
 DBCSR| MPI: Number of processes                                              24
 DBCSR| OMP: Current number of threads                                         4
 DBCSR| OMP: Max number of threads                                             4
 DBCSR| Split modifier for TAS multiplication algorithm                  1.0E+00 (U)


  **** **** ******  **  PROGRAM STARTED AT               2025-03-03 06:26:19.258
 ***** ** ***  *** **   PROGRAM STARTED ON                          i01r06c01s08
 **    ****   ******    PROGRAM STARTED BY                               di38fab
 ***** **    ** ** **   PROGRAM PROCESS ID                                346072
  **** **  *******  **  PROGRAM STARTED IN /hppfs/scratch/04/di38fab/05_MOL/W4-1
                                           1+ALK/nh/SZVSR

 CP2K| version string:                 CP2K version 2025.1 (Development Version)
 CP2K| source code revision number:                                  git:47877ba
 CP2K| cp2kflags: omp libint fftw3 libxc parallel scalapack max_contr=4         
 CP2K| is freely available from                            https://www.cp2k.org/
 CP2K| Program compiled at                          Thu Feb 20 16:00:34 CET 2025
 CP2K| Program compiled on                                               login04
 CP2K| Program compiled for                                        Supermuc-foss
 CP2K| Data directory path          /hppfs/work/pn36zo/di38fab/newcp2k/cp2k/data
 CP2K| Input file name                                                    GW.inp

 GLOBAL| Force Environment number                                              1
 GLOBAL| Basis set file name            /hppfs/scratch/04/di38fab/04_TMD/BASIS_A
 GLOBAL| Potential file name            /hppfs/work/pn36zo/di38fab/cp2k/data/ALL
 GLOBAL| MM Potential file name                                     MM_POTENTIAL
 GLOBAL| Coordinate file name                                      __STD_INPUT__
 GLOBAL| Method name                                                        CP2K
 GLOBAL| Project name                                                       MoS2
 GLOBAL| Run type                                                         ENERGY
 GLOBAL| FFT library                                                       FFTW3
 GLOBAL| Diagonalization library                                       ScaLAPACK
 GLOBAL| DGEMM library                                                      BLAS
 GLOBAL| Orthonormality check for eigenvectors                          DISABLED
 GLOBAL| Matrix multiplication library                                 ScaLAPACK
 GLOBAL| All-to-all communication in single precision                          F
 GLOBAL| FFTs using library dependent lengths                                  F
 GLOBAL| Grid backend                                                       AUTO
 GLOBAL| Global print level                                               MEDIUM
 GLOBAL| MPI I/O enabled                                                       T
 GLOBAL| Total number of message passing processes                            24
 GLOBAL| Number of threads for this process                                    4
 GLOBAL| This output is from process                                           0
 GLOBAL| OpenMP stack size per thread (OMP_STACKSIZE)                    default
 GLOBAL| CPU model name             Intel(R) Xeon(R) Platinum 8174 CPU @ 3.10GHz

 MEMORY| system memory details [Kb]
 MEMORY|                        rank 0           min           max       average
 MEMORY| MemTotal             98436660      98436660      98436664      98436662
 MEMORY| MemFree              85982992      84048244      85982992      85015618
 MEMORY| Buffers                     0             0             0             0
 MEMORY| Cached                2204212       2204212       2396212       2300212
 MEMORY| Slab                   906068        906068       1200504       1053286
 MEMORY| SReclaimable           203616        203616        267596        235606
 MEMORY| MemLikelyFree        88390820      86712052      88390820      87551436


 *** Fundamental physical constants (SI units) ***

 *** Literature: B. J. Mohr and B. N. Taylor,
 ***             CODATA recommended values of the fundamental physical
 ***             constants: 2006, Web Version 5.1
 ***             http://physics.nist.gov/constants

 Speed of light in vacuum [m/s]                             2.99792458000000E+08
 Magnetic constant or permeability of vacuum [N/A**2]       1.25663706143592E-06
 Electric constant or permittivity of vacuum [F/m]          8.85418781762039E-12
 Planck constant (h) [J*s]                                  6.62606896000000E-34
 Planck constant (h-bar) [J*s]                              1.05457162825177E-34
 Elementary charge [C]                                      1.60217648700000E-19
 Electron mass [kg]                                         9.10938215000000E-31
 Electron g factor [ ]                                     -2.00231930436220E+00
 Proton mass [kg]                                           1.67262163700000E-27
 Fine-structure constant                                    7.29735253760000E-03
 Rydberg constant [1/m]                                     1.09737315685270E+07
 Avogadro constant [1/mol]                                  6.02214179000000E+23
 Boltzmann constant [J/K]                                   1.38065040000000E-23
 Atomic mass unit [kg]                                      1.66053878200000E-27
 Bohr radius [m]                                            5.29177208590000E-11

 *** Conversion factors ***

 [u] -> [a.u.]                                              1.82288848426455E+03
 [Angstrom] -> [Bohr] = [a.u.]                              1.88972613288564E+00
 [a.u.] = [Bohr] -> [Angstrom]                              5.29177208590000E-01
 [a.u.] -> [s]                                              2.41888432650478E-17
 [a.u.] -> [fs]                                             2.41888432650478E-02
 [a.u.] -> [J]                                              4.35974393937059E-18
 [a.u.] -> [N]                                              8.23872205491840E-08
 [a.u.] -> [K]                                              3.15774647902944E+05
 [a.u.] -> [kJ/mol]                                         2.62549961709828E+03
 [a.u.] -> [kcal/mol]                                       6.27509468713739E+02
 [a.u.] -> [Pa]                                             2.94210107994716E+13
 [a.u.] -> [bar]                                            2.94210107994716E+08
 [a.u.] -> [atm]                                            2.90362800883016E+08
 [a.u.] -> [eV]                                             2.72113838565563E+01
 [a.u.] -> [Hz]                                             6.57968392072181E+15
 [a.u.] -> [1/cm] (wave numbers)                            2.19474631370540E+05
 [a.u./Bohr**2] -> [1/cm]                                   5.14048714338585E+03
 

 CELL_TOP| Volume [angstrom^3]:                                     27000.000000
 CELL_TOP| Vector a [angstrom    30.000     0.000     0.000   |a| =    30.000000
 CELL_TOP| Vector b [angstrom     0.000    30.000     0.000   |b| =    30.000000
 CELL_TOP| Vector c [angstrom     0.000     0.000    30.000   |c| =    30.000000
 CELL_TOP| Angle (b,c), alpha [degree]:                                90.000000
 CELL_TOP| Angle (a,c), beta  [degree]:                                90.000000
 CELL_TOP| Angle (a,b), gamma [degree]:                                90.000000
 CELL_TOP| Numerically orthorhombic:                                         YES
 CELL_TOP| Periodicity                                                      NONE

 GENERATE|  Preliminary Number of Bonds generated:                             0
 GENERATE|  Achieved consistency in connectivity generation.

 CELL| Volume [angstrom^3]:                                         27000.000000
 CELL| Vector a [angstrom]:      30.000     0.000     0.000   |a| =    30.000000
 CELL| Vector b [angstrom]:       0.000    30.000     0.000   |b| =    30.000000
 CELL| Vector c [angstrom]:       0.000     0.000    30.000   |c| =    30.000000
 CELL| Angle (b,c), alpha [degree]:                                    90.000000
 CELL| Angle (a,c), beta  [degree]:                                    90.000000
 CELL| Angle (a,b), gamma [degree]:                                    90.000000
 CELL| Numerically orthorhombic:                                             YES
 CELL| Periodicity                                                          NONE

 CELL_REF| Volume [angstrom^3]:                                     27000.000000
 CELL_REF| Vector a [angstrom    30.000     0.000     0.000   |a| =    30.000000
 CELL_REF| Vector b [angstrom     0.000    30.000     0.000   |b| =    30.000000
 CELL_REF| Vector c [angstrom     0.000     0.000    30.000   |c| =    30.000000
 CELL_REF| Angle (b,c), alpha [degree]:                                90.000000
 CELL_REF| Angle (a,c), beta  [degree]:                                90.000000
 CELL_REF| Angle (a,b), gamma [degree]:                                90.000000
 CELL_REF| Numerically orthorhombic:                                         YES
 CELL_REF| Periodicity                                                      NONE

 *******************************************************************************
 *******************************************************************************
 **                                                                           **
 **     #####                         ##              ##                      **
 **    ##   ##            ##          ##              ##                      **
 **   ##     ##                       ##            ######                    **
 **   ##     ##  ##   ##  ##   #####  ##  ##   ####   ##    #####    #####    **
 **   ##     ##  ##   ##  ##  ##      ## ##   ##      ##   ##   ##  ##   ##   **
 **   ##  ## ##  ##   ##  ##  ##      ####     ###    ##   ######   ######    **
 **    ##  ###   ##   ##  ##  ##      ## ##      ##   ##   ##       ##        **
 **     #######   #####   ##   #####  ##  ##  ####    ##    #####   ##        **
 **           ##                                                    ##        **
 **                                                                           **
 **                                                ... make the atoms dance   **
 **                                                                           **
 **            Copyright (C) by CP2K developers group (2000-2025)             **
 **                      J. Chem. Phys. 152, 194103 (2020)                    **
 **                                                                           **
 *******************************************************************************

 DFT| Spin restricted Kohn-Sham (RKS) calculation                            RKS
 DFT| Multiplicity                                                             1
 DFT| Number of spin states                                                    1
 DFT| Charge                                                                   0
 DFT| Self-interaction correction (SIC)                                       NO
 DFT| Cutoffs: density                                              1.000000E-10
 DFT|          gradient                                             1.000000E-10
 DFT|          tau                                                  1.000000E-10
 DFT|          cutoff_smoothing_range                               0.000000E+00
 DFT| XC density smoothing                                                  NONE
 DFT| XC derivatives                                                          PW

 FUNCTIONAL| PBE:
 FUNCTIONAL| J.P.Perdew, K.Burke, M.Ernzerhof, Phys. Rev. Letter, vol. 77, n 18,
 FUNCTIONAL|  pp. 3865-3868, (1996)sx=0.750sc=1.000{spin unpolarized}           


 QS| Method:                                                                GAPW
 QS| Density plane wave grid type                        NON-SPHERICAL FULLSPACE
 QS| Number of grid levels:                                                    4
 QS| Density cutoff [a.u.]:                                                250.0
 QS| Multi grid cutoff [a.u.]: 1) grid level                               250.0
 QS|                           2) grid level                                83.3
 QS|                           3) grid level                                27.8
 QS|                           4) grid level                                 9.3
 QS| Grid level progression factor:                                          3.0
 QS| Relative density cutoff [a.u.]:                                        50.0
 QS| Interaction thresholds: eps_pgf_orb:                                1.0E-12
 QS|                         eps_filter_matrix:                          0.0E+00
 QS|                         eps_core_charge:                            1.0E-14
 QS|                         eps_rho_gspace:                             1.0E-12
 QS|                         eps_rho_rspace:                             1.0E-12
 QS|                         eps_gvg_rspace:                             1.0E-06
 QS|                         eps_ppl:                                    1.0E-02
 QS|                         eps_ppnl:                                   1.0E-08
 QS| GAPW|      One center basis from orbital basis primitives
 QS| GAPW|                   eps_fit:                                    1.0E-04
 QS| GAPW|                   eps_iso:                                    1.0E-12
 QS| GAPW|                   eps_svd:                                    1.0E-08
 QS| GAPW|                   eps_cpc:                                    1.0E-12
 QS| GAPW|   atom-r-grid: quadrature:                                     GC_LOG
 QS| GAPW|      atom-s-grid:  max l :                                          4
 QS| GAPW|      max_l_rho0 :                                                   2
 QS| GAPW|      At least one kind is NOT PAW, i.e. it has only soft AO 
 QS| GAPW|      The NOT PAW atoms are treated fully GPW


 ATOMIC KIND INFORMATION

  1. Atomic kind: N                                     Number of atoms:       1

     Orbital Basis Set                                      aug-SZV-MOLOPT-ae-SR

       Number of orbital shell sets:                                           2
       Number of orbital shells:                                               6
       Number of primitive Cartesian functions:                                7
       Number of Cartesian basis functions:                                   15
       Number of spherical basis functions:                                   14
       Norm type:                                                              2

       Normalised Cartesian orbitals:

                        Set   Shell   Orbital            Exponent    Coefficient

                          1       1    1s                0.112012       0.000000
                                                         0.285714       0.194997
                                                         0.878497       0.258372
                                                         3.780456      -0.193164

                          1       2    2s                0.112012       0.083551
                                                         0.285714      -0.189186
                                                         0.878497      -0.469875
                                                         3.780456      -0.002085

                          1       3    2px               0.112012       0.000000
                                                         0.285714       0.116706
                                                         0.878497       0.736704
                                                         3.780456       1.171553
                          1       3    2py               0.112012       0.000000
                                                         0.285714       0.116706
                                                         0.878497       0.736704
                                                         3.780456       1.171553
                          1       3    2pz               0.112012       0.000000
                                                         0.285714       0.116706
                                                         0.878497       0.736704
                                                         3.780456       1.171553

                          1       4    3px               0.112012       0.141957
                                                         0.285714      -0.286713
                                                         0.878497       0.074784
                                                         3.780456       0.008085
                          1       4    3py               0.112012       0.141957
                                                         0.285714      -0.286713
                                                         0.878497       0.074784
                                                         3.780456       0.008085
                          1       4    3pz               0.112012       0.141957
                                                         0.285714      -0.286713
                                                         0.878497       0.074784
                                                         3.780456       0.008085

                          1       5    3dx2              0.112012      -0.000364
                                                         0.285714       0.186009
                                                         0.878497      -0.044751
                                                         3.780456       1.815169
                          1       5    3dxy              0.112012      -0.000630
                                                         0.285714       0.322177
                                                         0.878497      -0.077512
                                                         3.780456       3.143965
                          1       5    3dxz              0.112012      -0.000630
                                                         0.285714       0.322177
                                                         0.878497      -0.077512
                                                         3.780456       3.143965
                          1       5    3dy2              0.112012      -0.000364
                                                         0.285714       0.186009
                                                         0.878497      -0.044751
                                                         3.780456       1.815169
                          1       5    3dyz              0.112012      -0.000630
                                                         0.285714       0.322177
                                                         0.878497      -0.077512
                                                         3.780456       3.143965
                          1       5    3dz2              0.112012      -0.000364
                                                         0.285714       0.186009
                                                         0.878497      -0.044751
                                                         3.780456       1.815169

                          2       1    1s               99.106169       3.454881
                                                        18.052312       3.341410
                                                         4.885660       1.041372

     RI Auxiliary Basis Set             RI_aug-SZV-MOLOPT-ae-SR_N_RI_025_s_p_d_f

       Number of orbital shell sets:                                           9
       Number of orbital shells:                                               9
       Number of primitive Cartesian functions:                                9
       Number of Cartesian basis functions:                                   29
       Number of spherical basis functions:                                   25
       Norm type:                                                              2

       Normalised Cartesian orbitals:

                        Set   Shell   Orbital            Exponent    Coefficient

                          1       1    1s                0.366043       0.335397

                          2       1    5px               0.438786       0.509044
                          2       1    5py               0.438786       0.509044
                          2       1    5pz               0.438786       0.509044

                          3       1    8dx2              0.671703       0.820294
                          3       1    8dxy              0.671703       1.420790
                          3       1    8dxz              0.671703       1.420790
                          3       1    8dy2              0.671703       0.820294
                          3       1    8dyz              0.671703       1.420790
                          3       1    8dz2              0.671703       0.820294

                          4       1    9fx3              0.687025       0.632620
                          4       1    9fx2y             0.687025       1.414582
                          4       1    9fx2z             0.687025       1.414582
                          4       1    9fxy2             0.687025       1.414582
                          4       1    9fxyz             0.687025       2.450128
                          4       1    9fxz2             0.687025       1.414582
                          4       1    9fy3              0.687025       0.632620
                          4       1    9fy2z             0.687025       1.414582
                          4       1    9fyz2             0.687025       1.414582
                          4       1    9fz3              0.687025       0.632620

                          5       1    2s                1.338522       0.886909

                          6       1    6px               1.638006       2.641401
                          6       1    6py               1.638006       2.641401
                          6       1    6pz               1.638006       2.641401

                          7       1    3s               12.321949       4.687266

                          8       1    7px              21.347579      65.407246
                          8       1    7py              21.347579      65.407246
                          8       1    7pz              21.347579      65.407246

                          9       1    4s              109.598167      24.141406

       Atomic covalent radius [Angstrom]:                                  0.750

       Atomic van der Waals radius [Angstrom]:                             1.550

     The atoms of this atomic kind are PAW atoms (GAPW):
       Hard Gaussian function radius:                                      1.512
       Rho0 radius:                                                        1.512
       Maximum GTO radius used for PAW projector construction:            24.566

     GAPW Soft Basis Set                               aug-SZV-MOLOPT-ae-SR_soft

       Number of orbital shell sets:                                           2
       Number of orbital shells:                                               6
       Number of primitive Cartesian functions:                                4
       Number of Cartesian basis functions:                                   15
       Number of spherical basis functions:                                   14
       Norm type:                                                              2

       Normalised Cartesian orbitals:

                        Set   Shell   Orbital            Exponent    Coefficient

                          1       1    1s                0.112012       0.000000
                                                         0.285714       0.194997
                                                         0.878497       0.258372
                                                         3.780456      -0.193164

                          1       2    2s                0.112012       0.083551
                                                         0.285714      -0.189186
                                                         0.878497      -0.469875
                                                         3.780456      -0.002085

                          1       3    2px               0.112012       0.000000
                                                         0.285714       0.116706
                                                         0.878497       0.736704
                                                         3.780456       1.171553
                          1       3    2py               0.112012       0.000000
                                                         0.285714       0.116706
                                                         0.878497       0.736704
                                                         3.780456       1.171553
                          1       3    2pz               0.112012       0.000000
                                                         0.285714       0.116706
                                                         0.878497       0.736704
                                                         3.780456       1.171553

                          1       4    3px               0.112012       0.141957
                                                         0.285714      -0.286713
                                                         0.878497       0.074784
                                                         3.780456       0.008085
                          1       4    3py               0.112012       0.141957
                                                         0.285714      -0.286713
                                                         0.878497       0.074784
                                                         3.780456       0.008085
                          1       4    3pz               0.112012       0.141957
                                                         0.285714      -0.286713
                                                         0.878497       0.074784
                                                         3.780456       0.008085

                          1       5    3dx2              0.112012      -0.000364
                                                         0.285714       0.186009
                                                         0.878497      -0.044751
                                                         3.780456       1.815169
                          1       5    3dxy              0.112012      -0.000630
                                                         0.285714       0.322177
                                                         0.878497      -0.077512
                                                         3.780456       3.143965
                          1       5    3dxz              0.112012      -0.000630
                                                         0.285714       0.322177
                                                         0.878497      -0.077512
                                                         3.780456       3.143965
                          1       5    3dy2              0.112012      -0.000364
                                                         0.285714       0.186009
                                                         0.878497      -0.044751
                                                         3.780456       1.815169
                          1       5    3dyz              0.112012      -0.000630
                                                         0.285714       0.322177
                                                         0.878497      -0.077512
                                                         3.780456       3.143965
                          1       5    3dz2              0.112012      -0.000364
                                                         0.285714       0.186009
                                                         0.878497      -0.044751
                                                         3.780456       1.815169

                          2       1    1s         

     AE Potential information for                                            ALL

       Description:                                       All-electron potential
                                          Krack, Parrinello, PCCP 2, 2105 (2000)

       Gaussian exponent of the core charge distribution:               5.979100
       Electronic configuration (s p d ...):                           4   3   0

  2. Atomic kind: H                                     Number of atoms:       1

     Orbital Basis Set                                      aug-SZV-MOLOPT-ae-SR

       Number of orbital shell sets:                                           1
       Number of orbital shells:                                               4
       Number of primitive Cartesian functions:                                4
       Number of Cartesian basis functions:                                    6
       Number of spherical basis functions:                                    6
       Norm type:                                                              2

       Normalised Cartesian orbitals:

                        Set   Shell   Orbital            Exponent    Coefficient

                          1       1    2s                0.065428       0.000000
                                                         0.168855       0.083474
                                                         0.623914       0.267839
                                                         3.425251       0.276934

                          1       2    3s                0.065428      -0.066952
                                                         0.168855       0.261968
                                                         0.623914       0.081548
                                                         3.425251      -0.022414

                          1       3    4s                0.065428       0.165615
                                                         0.168855      -0.226449
                                                         0.623914      -0.005802
                                                         3.425251       0.005451

                          1       4    3px               0.065428       0.053063
                                                         0.168855      -0.030502
                                                         0.623914       0.062721
                                                         3.425251       0.019012
                          1       4    3py               0.065428       0.053063
                                                         0.168855      -0.030502
                                                         0.623914       0.062721
                                                         3.425251       0.019012
                          1       4    3pz               0.065428       0.053063
                                                         0.168855      -0.030502
                                                         0.623914       0.062721
                                                         3.425251       0.019012

     RI Auxiliary Basis Set             RI_aug-SZV-MOLOPT-ae-SR_N_RI_006_s_p_d_f

       Number of orbital shell sets:                                           4
       Number of orbital shells:                                               4
       Number of primitive Cartesian functions:                                4
       Number of Cartesian basis functions:                                    6
       Number of spherical basis functions:                                    6
       Norm type:                                                              2

       Normalised Cartesian orbitals:

                        Set   Shell   Orbital            Exponent    Coefficient

                          1       1    1s                0.310545       0.296485

                          2       1    4px               0.543207       0.664733
                          2       1    4py               0.543207       0.664733
                          2       1    4pz               0.543207       0.664733

                          3       1    2s                0.965126       0.693982

                          4       1    3s                3.094977       1.663042

       Atomic covalent radius [Angstrom]:                                  0.320

       Atomic van der Waals radius [Angstrom]:                             1.090

     AE Potential information for                                            ALL

       Description:                                       All-electron potential
                                          Krack, Parrinello, PCCP 2, 2105 (2000)

       Gaussian exponent of the core charge distribution:              12.500000
       Electronic configuration (s p d ...):                           1   0   0


 MOLECULE KIND INFORMATION


 All atoms are their own molecule, skipping detailed information


 TOTAL NUMBERS AND MAXIMUM NUMBERS

  Total number of            - Atomic kinds:                                   2
                             - Atoms:                                          2
                             - Shell sets:                                     3
                             - Shells:                                        10
                             - Primitive Cartesian functions:                 11
                             - Cartesian basis functions:                     21
                             - Spherical basis functions:                     20

  Maximum angular momentum of the orbital basis functions:                     2


 MODULE QUICKSTEP: ATOMIC COORDINATES IN ANGSTROM

   Atom Kind Element         X             Y             Z       Z(eff)     Mass
      1    1 N     7     15.518596     15.000000     15.000000   7.0000  14.0067
      2    2 H     1     14.481404     15.000000     15.000000   1.0000   1.0079



 SCF PARAMETERS         Density guess:                                    ATOMIC
                        --------------------------------------------------------
                        max_scf:                                             500
                        max_scf_history:                                       0
                        max_diis:                                              4
                        --------------------------------------------------------
                        eps_scf:                                        1.00E-06
                        eps_scf_history:                                0.00E+00
                        eps_diis:                                       1.00E-01
                        eps_eigval:                                     1.00E-05
                        --------------------------------------------------------
                        level_shift [a.u.]:                             0.000000
                        added MOs                                        16    0
                        --------------------------------------------------------
                        Mixing method:                            BROYDEN_MIXING
                                                charge density mixing in g-space
                        --------------------------------------------------------
                        No outer SCF

 PW_GRID| Information for grid number                                          1
 PW_GRID| Grid distributed over                                    24 processors
 PW_GRID| Real space group dimensions                                    24    1
 PW_GRID| the grid is blocked:                                                NO
 PW_GRID| Cutoff [a.u.]                                                    250.0
 PW_GRID| spherical cutoff:                                                   NO
 PW_GRID|   Bounds   1           -202     202                Points:         405
 PW_GRID|   Bounds   2           -202     202                Points:         405
 PW_GRID|   Bounds   3           -202     202                Points:         405
 PW_GRID| Volume element (a.u.^3)  0.2743E-02     Volume (a.u.^3)    182205.0337
 PW_GRID| Grid span                                                    FULLSPACE
 PW_GRID|   Distribution                         Average         Max         Min
 PW_GRID|   G-Vectors                          2767921.9     2768175     2767770
 PW_GRID|   G-Rays                                6834.4        6835        6834
 PW_GRID|   Real Space Points                  2767921.9     2788425     2624400

 PW_GRID| Information for grid number                                          2
 PW_GRID| Number of the reference grid                                         1
 PW_GRID| Grid distributed over                                    24 processors
 PW_GRID| Real space group dimensions                                    24    1
 PW_GRID| the grid is blocked:                                                NO
 PW_GRID| Cutoff [a.u.]                                                     83.3
 PW_GRID| spherical cutoff:                                                   NO
 PW_GRID|   Bounds   1           -120     119                Points:         240
 PW_GRID|   Bounds   2           -120     119                Points:         240
 PW_GRID|   Bounds   3           -120     119                Points:         240
 PW_GRID| Volume element (a.u.^3)  0.1318E-01     Volume (a.u.^3)    182205.0337
 PW_GRID| Grid span                                                    FULLSPACE
 PW_GRID|   Distribution                         Average         Max         Min
 PW_GRID|   G-Vectors                           576000.0      576240      575760
 PW_GRID|   G-Rays                                2400.0        2401        2399
 PW_GRID|   Real Space Points                   576000.0      576000      576000

 PW_GRID| Information for grid number                                          3
 PW_GRID| Number of the reference grid                                         1
 PW_GRID| Grid distributed over                                    24 processors
 PW_GRID| Real space group dimensions                                    24    1
 PW_GRID| the grid is blocked:                                                NO
 PW_GRID| Cutoff [a.u.]                                                     27.8
 PW_GRID| spherical cutoff:                                                   NO
 PW_GRID|   Bounds   1            -67      67                Points:         135
 PW_GRID|   Bounds   2            -67      67                Points:         135
 PW_GRID|   Bounds   3            -67      67                Points:         135
 PW_GRID| Volume element (a.u.^3)  0.7406E-01     Volume (a.u.^3)    182205.0337
 PW_GRID| Grid span                                                    FULLSPACE
 PW_GRID|   Distribution                         Average         Max         Min
 PW_GRID|   G-Vectors                           102515.6      102735      102330
 PW_GRID|   G-Rays                                 759.4         761         758
 PW_GRID|   Real Space Points                   102515.6      109350       91125

 PW_GRID| Information for grid number                                          4
 PW_GRID| Number of the reference grid                                         1
 PW_GRID| Grid distributed over                                    24 processors
 PW_GRID| Real space group dimensions                                    24    1
 PW_GRID| the grid is blocked:                                                NO
 PW_GRID| Cutoff [a.u.]                                                      9.3
 PW_GRID| spherical cutoff:                                                   NO
 PW_GRID|   Bounds   1            -40      39                Points:          80
 PW_GRID|   Bounds   2            -40      39                Points:          80
 PW_GRID|   Bounds   3            -40      39                Points:          80
 PW_GRID| Volume element (a.u.^3)  0.3559         Volume (a.u.^3)    182205.0337
 PW_GRID| Grid span                                                    FULLSPACE
 PW_GRID|   Distribution                         Average         Max         Min
 PW_GRID|   G-Vectors                            21333.3       21360       21280
 PW_GRID|   G-Rays                                 266.7         267         266
 PW_GRID|   Real Space Points                    21333.3       25600       19200

 POISSON| Solver                                                         WAVELET
 POISSON| Wavelet| Scaling function                                           40
 POISSON| Periodicity                                                       NONE

 RS_GRID| Information for grid number                                          1
 RS_GRID|   Bounds   1           -202     202                Points:         405
 RS_GRID|   Bounds   2           -202     202                Points:         405
 RS_GRID|   Bounds   3           -202     202                Points:         405
 RS_GRID| Real space distribution over                                  4 groups
 RS_GRID| Real space distribution along direction                              2
 RS_GRID| Border size                                                         34
 RS_GRID| Real space distribution over                                  6 groups
 RS_GRID| Real space distribution along direction                              3
 RS_GRID| Border size                                                         34
 RS_GRID|   Distribution                         Average         Max         Min
 RS_GRID|   Planes                                 169.2         170         169
 RS_GRID|   Distribution                         Average         Max         Min
 RS_GRID|   Planes                                 135.5         136         135

 RS_GRID| Information for grid number                                          2
 RS_GRID|   Bounds   1           -120     119                Points:         240
 RS_GRID|   Bounds   2           -120     119                Points:         240
 RS_GRID|   Bounds   3           -120     119                Points:         240
 RS_GRID| Real space distribution over                                  4 groups
 RS_GRID| Real space distribution along direction                              2
 RS_GRID| Border size                                                         37
 RS_GRID| Real space distribution over                                  6 groups
 RS_GRID| Real space distribution along direction                              3
 RS_GRID| Border size                                                         37
 RS_GRID|   Distribution                         Average         Max         Min
 RS_GRID|   Planes                                 134.0         134         134
 RS_GRID|   Distribution                         Average         Max         Min
 RS_GRID|   Planes                                 114.0         114         114

 RS_GRID| Information for grid number                                          3
 RS_GRID|   Bounds   1            -67      67                Points:         135
 RS_GRID|   Bounds   2            -67      67                Points:         135
 RS_GRID|   Bounds   3            -67      67                Points:         135
 RS_GRID| Real space fully replicated
 RS_GRID| Group size                                                           1

 RS_GRID| Information for grid number                                          4
 RS_GRID|   Bounds   1            -40      39                Points:          80
 RS_GRID|   Bounds   2            -40      39                Points:          80
 RS_GRID|   Bounds   3            -40      39                Points:          80
 RS_GRID| Real space fully replicated
 RS_GRID| Group size                                                           1

  HFX_INFO| Replica ID:                                                        1
  HFX_INFO| FRACTION:                                               0.2500000000
  HFX_INFO| Interaction Potential:                                       COULOMB
  HFX_INFO| EPS_SCHWARZ:                                                 1.0E-10
  HFX_INFO| EPS_SCHWARZ_FORCES                                           1.0E-08
  HFX_INFO| EPS_STORAGE_SCALING:                                         1.0E+00
  HFX_INFO| NBINS:                                                            64
  HFX_INFO| BLOCK_SIZE:                                                        1
  HFX_INFO| Number of periodic shells considered:                           NONE
  HFX_INFO| Number of periodic cells considered:                            NONE

 
 RI-RPA| using GPW style
 

 OVERLAP MATRIX CONDITION NUMBER
 1-Norm Condition Number (Estimate)
   CN : |A|*|A^-1|:  4.207E+000 *  1.116E+002   = 4.694E+002  Log(1-CN):  2.6715
 1-Norm and 2-Norm Condition Numbers using Diagonalization
   CN : |A|*|A^-1|:  4.207E+000 *  1.116E+002   = 4.694E+002  Log(1-CN):  2.6715
   CN : max/min ev:  2.973E+000 /  1.372E-002   = 2.168E+002  Log(2-CN):  2.3360

 Number of electrons:                                                          8
 Number of occupied orbitals:                                                  4
 Number of molecular orbitals:                                                20

 Number of orbital functions:                                                 20
 Number of independent orbital functions:                                     20

 Extrapolation method: initial_guess

 Atomic guess: The first density matrix is obtained in terms of atomic orbitals
               and electronic configurations assigned to each atomic kind

 Guess for atomic kind: N

 Electronic structure
    Total number of core electrons                                          0.00
    Total number of valence electrons                                       7.00
    Total number of electrons                                               7.00
    Multiplicity                                                   not specified
    S      2.00  2.00
    P      3.00


 *******************************************************************************
                  Iteration          Convergence                     Energy [au]
 *******************************************************************************
                          1        0.159909                     -53.340877683251
                          2        0.769146E-01                 -53.353877926770
                          3        0.463278E-03                 -53.358451509292
                          4        0.156014E-03                 -53.358451645833
                          5        0.102251E-04                 -53.358451658533
                          6        0.178265E-08                 -53.358451658590

 Energy components [Hartree]           Total Energy ::          -53.358451658590
                                        Band Energy ::          -29.695765597812
                                     Kinetic Energy ::           52.385975587247
                                   Potential Energy ::         -105.744427245837
                                      Virial (-V/T) ::            2.018563672060
                                        Core Energy ::          -72.851122194822
                                          XC Energy ::           -6.109149652554
                                     Coulomb Energy ::           25.601820188786

 Orbital energies  State     L     Occupation   Energy[a.u.]          Energy[eV]

                       1     0          2.000     -13.845221         -376.747634
                       2     0          2.000      -0.658428          -17.916731

                       1     1          3.000      -0.229489           -6.244716


 Total Electron Density at R=0:                                       126.344533

 Guess for atomic kind: H

 Electronic structure
    Total number of core electrons                                          0.00
    Total number of valence electrons                                       1.00
    Total number of electrons                                               1.00
    Multiplicity                                                   not specified
    S      1.00


 *******************************************************************************
                  Iteration          Convergence                     Energy [au]
 *******************************************************************************
                          1        0.105001E-01                  -0.442912571909
                          2        0.809393E-03                  -0.443000038014
                          3        0.126045E-03                  -0.443002205783
                          4        0.926691E-07                  -0.443002227638

 Energy components [Hartree]           Total Energy ::           -0.443002227638
                                        Band Energy ::           -0.231242105371
                                     Kinetic Energy ::            0.416655567325
                                   Potential Energy ::           -0.859657794963
                                      Virial (-V/T) ::            2.063233669195
                                        Core Energy ::           -0.493343888102
                                          XC Energy ::           -0.231659799565
                                     Coulomb Energy ::            0.282001460029

 Orbital energies  State     L     Occupation   Energy[a.u.]          Energy[eV]

                       1     0          1.000      -0.231242           -6.292418


 Total Electron Density at R=0:                                         0.184980
 Re-scaling the density matrix to get the right number of electrons
                  # Electrons              Trace(P)               Scaling factor
                            8                 8.000                        1.000


 SCF WAVEFUNCTION OPTIMIZATION

  Step     Update method      Time    Convergence         Total energy    Change
  ------------------------------------------------------------------------------

  HFX_MEM_INFO| Est. max. program size before HFX [MiB]:                    2197
  HFX_MEM_INFO| Number of cart. primitive ERI's calculated:              5879217
  HFX_MEM_INFO| Number of sph. ERI's calculated:                           73312
  HFX_MEM_INFO| Number of sph. ERI's stored in-core:                       73312
  HFX_MEM_INFO| Number of sph. ERI's stored on disk:                           0
  HFX_MEM_INFO| Number of sph. ERI's calculated on the fly:                    0
  HFX_MEM_INFO| Total memory consumption ERI's RAM [MiB]:                      1
  HFX_MEM_INFO| Whereof max-vals [MiB]:                                        1
  HFX_MEM_INFO| Total compression factor ERI's RAM:                         0.57
  HFX_MEM_INFO| Total memory consumption ERI's disk [MiB]:                     0
  HFX_MEM_INFO| Total compression factor ERI's disk:                        0.00
  HFX_MEM_INFO| Size of density/Fock matrix [MiB]:                             0
  HFX_MEM_INFO| Size of buffers [MiB]:                                         0
  HFX_MEM_INFO| Est. max. program size after HFX  [MiB]:                    2707

     1 NoMix/Diag. 0.10E+00    6.2     0.94794574       -54.3549978085 -5.44E+01
     2 Broy./Diag. 0.10E+00    4.8     0.06088563       -53.9753469845  3.80E-01
     3 Broy./Diag. 0.10E+00    4.9     0.04747581       -53.9711080527  4.24E-03
     4 Broy./Diag. 0.10E+00    4.9     0.06612574       -54.2580321971 -2.87E-01
     5 Broy./Diag. 0.10E+00    4.9     0.01773389       -54.4639872071 -2.06E-01
     6 Broy./Diag. 0.10E+00    4.9     0.01632897       -54.4616727230  2.31E-03
     7 Broy./Diag. 0.10E+00    5.0     0.01613127       -54.3965560536  6.51E-02
     8 Broy./Diag. 0.10E+00    5.1     0.00274112       -54.3637947434  3.28E-02
     9 Broy./Diag. 0.10E+00    5.2     0.02078159       -54.4076003609 -4.38E-02
    10 Broy./Diag. 0.10E+00    5.3     0.00591213       -54.4631066522 -5.55E-02
    11 Broy./Diag. 0.10E+00    5.3     0.00517046       -54.4609708116  2.14E-03
    12 Broy./Diag. 0.10E+00    5.3     0.00948605       -54.4231382845  3.78E-02
    13 Broy./Diag. 0.10E+00    5.3     0.00236948       -54.3988790527  2.43E-02
    14 Broy./Diag. 0.10E+00    5.3     0.00750766       -54.4118531658 -1.30E-02
    15 Broy./Diag. 0.10E+00    5.3     0.00452121       -54.4358942465 -2.40E-02
    16 Broy./Diag. 0.10E+00    5.3     0.00109129       -54.4451157032 -9.22E-03
    17 Broy./Diag. 0.10E+00    5.3     0.00256596       -54.4408892275  4.23E-03
    18 Broy./Diag. 0.10E+00    5.4     0.00100865       -54.4347923276  6.10E-03
    19 Broy./Diag. 0.10E+00    5.3     0.00018017       -54.4324556419  2.34E-03
    20 Broy./Diag. 0.10E+00    5.3     0.00090299       -54.4317516258  7.04E-04
    21 Broy./Diag. 0.10E+00    5.3     0.00053891       -54.4306647300  1.09E-03
    22 Broy./Diag. 0.10E+00    5.3     0.00011097       -54.4296897929  9.75E-04
    23 Broy./Diag. 0.10E+00    5.3     0.00019983       -54.4292007471  4.89E-04
    24 Broy./Diag. 0.10E+00    5.3     0.00020092       -54.4293660153 -1.65E-04
    25 Broy./Diag. 0.10E+00    5.4     0.00047298       -54.4305832564 -1.22E-03
    26 Broy./Diag. 0.10E+00    5.3     0.00053896       -54.4311638265 -5.81E-04
    27 Broy./Diag. 0.10E+00    5.3     0.00031429       -54.4308643613  2.99E-04
    28 Broy./Diag. 0.10E+00    5.3     0.00018006       -54.4308547340  9.63E-06
    29 Broy./Diag. 0.10E+00    5.3     0.00011036       -54.4307919658  6.28E-05
    30 Broy./Diag. 0.10E+00    5.3     0.00015822       -54.4305577942  2.34E-04
    31 Broy./Diag. 0.10E+00    5.3     0.00016188       -54.4307066182 -1.49E-04
    32 Broy./Diag. 0.10E+00    5.3     0.00011817       -54.4307081232 -1.51E-06
    33 Broy./Diag. 0.10E+00    5.4     0.00002458       -54.4304829414  2.25E-04
    34 Broy./Diag. 0.10E+00    5.3     0.00002081       -54.4304407820  4.22E-05
    35 Broy./Diag. 0.10E+00    5.3     0.00005100       -54.4302995987  1.41E-04
    36 Broy./Diag. 0.10E+00    5.3     0.00006283       -54.4302498151  4.98E-05
    37 Broy./Diag. 0.10E+00    5.3     0.00005398       -54.4304107570 -1.61E-04
    38 Broy./Diag. 0.10E+00    5.3     0.00004608       -54.4304164427 -5.69E-06
    39 Broy./Diag. 0.10E+00    5.3     0.00006268       -54.4303960876  2.04E-05
    40 Broy./Diag. 0.10E+00    5.3     0.00011288       -54.4304136129 -1.75E-05
    41 Broy./Diag. 0.10E+00    5.4     0.00018552       -54.4303708246  4.28E-05
    42 Broy./Diag. 0.10E+00    5.3     0.00032214       -54.4303355614  3.53E-05
    43 Broy./Diag. 0.10E+00    5.3     0.00056761       -54.4303625076 -2.69E-05
    44 Broy./Diag. 0.10E+00    5.3     0.00098804       -54.4303846204 -2.21E-05
    45 Broy./Diag. 0.10E+00    5.3     0.00172717       -54.4303864432 -1.82E-06
    46 Broy./Diag. 0.10E+00    5.4     0.00302510       -54.4303920005 -5.56E-06
    47 Broy./Diag. 0.10E+00    5.3     0.00530120       -54.4304147799 -2.28E-05
    48 Broy./Diag. 0.10E+00    5.4     0.00924057       -54.4304525222 -3.77E-05
    49 Broy./Diag. 0.10E+00    5.3     0.01616343       -54.4304576536 -5.13E-06
    50 Broy./Diag. 0.10E+00    5.3     0.02818306       -54.4302914773  1.66E-04
    51 Broy./Diag. 0.10E+00    5.3     0.04888707       -54.4299771798  3.14E-04
    52 Broy./Diag. 0.10E+00    5.3     0.08348560       -54.4297009468  2.76E-04
    53 Broy./Diag. 0.10E+00    5.3     0.13646311       -54.4289991502  7.02E-04
    54 Broy./Diag. 0.10E+00    5.3     0.19955833       -54.4265912605  2.41E-03
    55 Broy./Diag. 0.10E+00    5.3     0.24316118       -54.4200148206  6.58E-03
    56 Broy./Diag. 0.10E+00    5.4     0.37092300       -54.4050417462  1.50E-02
    57 Broy./Diag. 0.10E+00    5.3     0.38224739       -54.3798657982  2.52E-02
    58 Broy./Diag. 0.10E+00    5.3     0.29098948       -54.3520509270  2.78E-02
    59 Broy./Diag. 0.10E+00    5.3     0.18074387       -54.3287550580  2.33E-02
    60 Broy./Diag. 0.10E+00    5.3     0.14858642       -54.3132841325  1.55E-02
    61 Broy./Diag. 0.10E+00    5.3     0.11780408       -54.3047600395  8.52E-03
    62 Broy./Diag. 0.10E+00    5.3     0.08763391       -54.3000606125  4.70E-03
    63 Broy./Diag. 0.10E+00    5.3     0.06329329       -54.2975256175  2.53E-03
    64 Broy./Diag. 0.10E+00    5.3     0.04522205       -54.2973937450  1.32E-04
    65 Broy./Diag. 0.10E+00    5.3     0.03316166       -54.3155811225 -1.82E-02
    66 Broy./Diag. 0.10E+00    5.3     0.02482229       -54.3378763829 -2.23E-02
    67 Broy./Diag. 0.10E+00    5.3     0.02101639       -54.4004864753 -6.26E-02
    68 Broy./Diag. 0.10E+00    5.3     0.02351567       -54.5486002210 -1.48E-01
    69 Broy./Diag. 0.10E+00    5.4     0.05087497       -54.8459139323 -2.97E-01
    70 Broy./Diag. 0.10E+00    5.3     0.10098193       -55.2001540476 -3.54E-01
    71 Broy./Diag. 0.10E+00    5.4     0.07820690       -55.1414389393  5.87E-02
    72 Broy./Diag. 0.10E+00    5.3     0.10029524       -55.0945585531  4.69E-02
    73 Broy./Diag. 0.10E+00    5.3     0.11550375       -54.7904112757  3.04E-01
    74 Broy./Diag. 0.10E+00    5.4     0.12547803       -54.4744583423  3.16E-01
    75 Broy./Diag. 0.10E+00    5.3     0.13628209       -54.3130116481  1.61E-01
    76 Broy./Diag. 0.10E+00    5.3     0.29419146       -54.2177963109  9.52E-02
    77 Broy./Diag. 0.10E+00    5.3     0.22950407       -54.3369109111 -1.19E-01
    78 Broy./Diag. 0.10E+00    5.3     0.21318482       -54.1983450115  1.39E-01
    79 Broy./Diag. 0.10E+00    5.3     0.15082000       -54.2229515022 -2.46E-02
    80 Broy./Diag. 0.10E+00    5.3     0.18262276       -54.2501902546 -2.72E-02
    81 Broy./Diag. 0.10E+00    5.3     0.17572921       -54.2267917709  2.34E-02
    82 Broy./Diag. 0.10E+00    5.3     0.14032206       -54.2171756418  9.62E-03
    83 Broy./Diag. 0.10E+00    5.3     0.06937517       -54.3805665665 -1.63E-01
    84 Broy./Diag. 0.10E+00    5.3     0.05549507       -54.5443893449 -1.64E-01
    85 Broy./Diag. 0.10E+00    5.3     0.10714690       -54.5929014472 -4.85E-02
    86 Broy./Diag. 0.10E+00    5.3     0.03761862       -54.7318835879 -1.39E-01
    87 Broy./Diag. 0.10E+00    5.3     0.23717535       -54.6216601081  1.10E-01
    88 Broy./Diag. 0.10E+00    5.3     0.17360545       -54.6254509137 -3.79E-03
    89 Broy./Diag. 0.10E+00    5.4     0.45422675       -54.6870688691 -6.16E-02
    90 Broy./Diag. 0.10E+00    5.3     0.16704893       -54.9327211335 -2.46E-01

 *** WARNING in pw/ps_wavelet_methods.F:238 :: Density non-zero on the ***
 *** edges of the unit cell: wrong results in WAVELET solver           ***

    91 Broy./Diag. 0.10E+00    5.3     0.12603832       -54.8948082896  3.79E-02

 *** WARNING in pw/ps_wavelet_methods.F:238 :: Density non-zero on the ***
 *** edges of the unit cell: wrong results in WAVELET solver           ***

    92 Broy./Diag. 0.10E+00    5.3     0.03269042       -54.8788728830  1.59E-02

 *** WARNING in pw/ps_wavelet_methods.F:238 :: Density non-zero on the ***
 *** edges of the unit cell: wrong results in WAVELET solver           ***

    93 Broy./Diag. 0.10E+00    5.3     0.01250467       -54.8400429628  3.88E-02
    94 Broy./Diag. 0.10E+00    5.3     0.07117097       -54.6839200532  1.56E-01
    95 Broy./Diag. 0.10E+00    5.3     0.06785324       -54.6202284408  6.37E-02
    96 Broy./Diag. 0.10E+00    5.3     0.13723710       -54.6103622826  9.87E-03
    97 Broy./Diag. 0.10E+00    5.3     0.26144045       -54.6099929360  3.69E-04
    98 Broy./Diag. 0.10E+00    5.3     0.37710275       -54.5965395609  1.35E-02
    99 Broy./Diag. 0.10E+00    5.3     0.28732377       -54.5913335950  5.21E-03
   100 Broy./Diag. 0.10E+00    5.3     0.20804553       -54.5627929256  2.85E-02
   101 Broy./Diag. 0.10E+00    5.3     0.19100516       -54.5322204940  3.06E-02
   102 Broy./Diag. 0.10E+00    5.3     0.20921244       -54.5144908642  1.77E-02
   103 Broy./Diag. 0.10E+00    5.3     0.17647135       -54.5065416487  7.95E-03
   104 Broy./Diag. 0.10E+00    5.3     0.14707610       -54.5108915603 -4.35E-03
   105 Broy./Diag. 0.10E+00    5.3     0.13200785       -54.4917240717  1.92E-02
   106 Broy./Diag. 0.10E+00    5.3     0.11093100       -54.4834637927  8.26E-03
   107 Broy./Diag. 0.10E+00    5.3     0.19772822       -54.5598722489 -7.64E-02
   108 Broy./Diag. 0.10E+00    5.4     0.12635024       -54.5239190123  3.60E-02
   109 Broy./Diag. 0.10E+00    5.3     0.03722096       -54.4482627612  7.57E-02
   110 Broy./Diag. 0.10E+00    5.3     0.02838371       -54.4922749378 -4.40E-02
   111 Broy./Diag. 0.10E+00    5.3     0.11221432       -54.5569964030 -6.47E-02
   112 Broy./Diag. 0.10E+00    5.3     0.12148149       -54.6281277411 -7.11E-02
   113 Broy./Diag. 0.10E+00    5.3     0.13738920       -54.7153798705 -8.73E-02
   114 Broy./Diag. 0.10E+00    5.3     0.16540333       -54.7266670186 -1.13E-02
   115 Broy./Diag. 0.10E+00    5.3     0.18062072       -54.6327681535  9.39E-02
   116 Broy./Diag. 0.10E+00    5.3     0.22319683       -54.5203052805  1.12E-01
   117 Broy./Diag. 0.10E+00    5.3     0.18075999       -54.6658529549 -1.46E-01
   118 Broy./Diag. 0.10E+00    5.3     0.05510078       -54.7724204024 -1.07E-01
   119 Broy./Diag. 0.10E+00    5.3     0.07184323       -54.7838046777 -1.14E-02
   120 Broy./Diag. 0.10E+00    5.3     0.17855049       -54.7944407321 -1.06E-02
   121 Broy./Diag. 0.10E+00    5.4     0.20902421       -54.7615411206  3.29E-02
   122 Broy./Diag. 0.10E+00    5.3     0.27727666       -54.7404750481  2.11E-02
   123 Broy./Diag. 0.10E+00    5.3     0.33121875       -54.7037426495  3.67E-02
   124 Broy./Diag. 0.10E+00    5.4     0.15874317       -54.6584651027  4.53E-02
   125 Broy./Diag. 0.10E+00    5.3     0.04006939       -54.6507627446  7.70E-03
   126 Broy./Diag. 0.10E+00    5.3     0.02055284       -54.6696455360 -1.89E-02
   127 Broy./Diag. 0.10E+00    5.3     0.04215381       -54.6828416330 -1.32E-02
   128 Broy./Diag. 0.10E+00    5.3     0.06543025       -54.7089496207 -2.61E-02
   129 Broy./Diag. 0.10E+00    5.3     0.03270100       -54.6942639268  1.47E-02
   130 Broy./Diag. 0.10E+00    5.3     0.05144872       -54.7093106158 -1.50E-02
   131 Broy./Diag. 0.10E+00    5.3     0.04593541       -54.7248608548 -1.56E-02
   132 Broy./Diag. 0.10E+00    5.3     0.04507744       -54.7248976930 -3.68E-05
   133 Broy./Diag. 0.10E+00    5.3     0.04955808       -54.6248720560  1.00E-01
   134 Broy./Diag. 0.10E+00    5.3     0.02810873       -54.5053023293  1.20E-01
   135 Broy./Diag. 0.10E+00    5.3     0.00968368       -54.5067099508 -1.41E-03
   136 Broy./Diag. 0.10E+00    5.3     0.11673360       -54.5182824610 -1.16E-02
   137 Broy./Diag. 0.10E+00    5.4     0.16444996       -54.5014541573  1.68E-02
   138 Broy./Diag. 0.10E+00    5.3     0.18519799       -54.4635617723  3.79E-02
   139 Broy./Diag. 0.10E+00    5.3     0.27609525       -54.4432457467  2.03E-02
   140 Broy./Diag. 0.10E+00    5.3     0.42399038       -54.4141242230  2.91E-02
   141 Broy./Diag. 0.10E+00    5.3     0.33710388       -54.3841868943  2.99E-02
   142 Broy./Diag. 0.10E+00    5.4     0.18609390       -54.3266328761  5.76E-02
   143 Broy./Diag. 0.10E+00    5.3     0.14501095       -54.3235280358  3.10E-03
   144 Broy./Diag. 0.10E+00    5.3     0.11366480       -54.3495206490 -2.60E-02
   145 Broy./Diag. 0.10E+00    5.4     0.09834787       -54.3534694327 -3.95E-03
   146 Broy./Diag. 0.10E+00    5.4     0.10578105       -54.3397013247  1.38E-02
   147 Broy./Diag. 0.10E+00    5.3     0.14041770       -54.3365014722  3.20E-03
   148 Broy./Diag. 0.10E+00    5.3     0.21600184       -54.3604002051 -2.39E-02
   149 Broy./Diag. 0.10E+00    5.3     0.25107791       -54.3679193299 -7.52E-03
   150 Broy./Diag. 0.10E+00    5.3     0.22111750       -54.3087834083  5.91E-02
   151 Broy./Diag. 0.10E+00    5.3     0.21949471       -54.2616734096  4.71E-02
   152 Broy./Diag. 0.10E+00    5.3     0.09021386       -54.3115318522 -4.99E-02
   153 Broy./Diag. 0.10E+00    5.3     0.08643119       -54.3963466689 -8.48E-02
   154 Broy./Diag. 0.10E+00    5.4     0.09341276       -54.4470499951 -5.07E-02
   155 Broy./Diag. 0.10E+00    5.3     0.02729815       -54.4581057380 -1.11E-02
   156 Broy./Diag. 0.10E+00    5.3     0.04335408       -54.4493633806  8.74E-03
   157 Broy./Diag. 0.10E+00    5.3     0.05341203       -54.4635012199 -1.41E-02
   158 Broy./Diag. 0.10E+00    5.3     0.12213889       -54.4613395886  2.16E-03
   159 Broy./Diag. 0.10E+00    5.3     0.17314855       -54.4625388685 -1.20E-03
   160 Broy./Diag. 0.10E+00    5.3     0.18389461       -54.4662262879 -3.69E-03
   161 Broy./Diag. 0.10E+00    5.3     0.11262785       -54.4795728858 -1.33E-02
   162 Broy./Diag. 0.10E+00    5.3     0.06208316       -54.4721728487  7.40E-03
   163 Broy./Diag. 0.10E+00    5.3     0.09795585       -54.4610316442  1.11E-02
   164 Broy./Diag. 0.10E+00    5.3     0.17145462       -54.4519880811  9.04E-03
   165 Broy./Diag. 0.10E+00    5.3     0.23711846       -54.4393720289  1.26E-02
   166 Broy./Diag. 0.10E+00    5.3     0.25149811       -54.4349905134  4.38E-03
   167 Broy./Diag. 0.10E+00    5.3     0.21988812       -54.4282055350  6.78E-03
   168 Broy./Diag. 0.10E+00    5.3     0.16120660       -54.4197954172  8.41E-03
   169 Broy./Diag. 0.10E+00    5.3     0.21245381       -54.4287338143 -8.94E-03
   170 Broy./Diag. 0.10E+00    5.3     0.27080712       -54.4536308491 -2.49E-02
   171 Broy./Diag. 0.10E+00    5.3     0.26263119       -54.4340132899  1.96E-02
   172 Broy./Diag. 0.10E+00    5.3     0.23776232       -54.3972008269  3.68E-02
   173 Broy./Diag. 0.10E+00    5.3     0.18492458       -54.3619487177  3.53E-02
   174 Broy./Diag. 0.10E+00    5.3     0.13388078       -54.3371312999  2.48E-02
   175 Broy./Diag. 0.10E+00    5.3     0.09359831       -54.3407345029 -3.60E-03
   176 Broy./Diag. 0.10E+00    5.3     0.09501955       -54.3915071571 -5.08E-02
   177 Broy./Diag. 0.10E+00    5.3     0.11083146       -54.4402208215 -4.87E-02
   178 Broy./Diag. 0.10E+00    5.3     0.14074434       -54.4516120537 -1.14E-02
   179 Broy./Diag. 0.10E+00    5.3     0.12236541       -54.4611694029 -9.56E-03
   180 Broy./Diag. 0.10E+00    5.3     0.20362497       -54.5051953276 -4.40E-02
   181 Broy./Diag. 0.10E+00    5.3     0.22618744       -54.5550730516 -4.99E-02
   182 Broy./Diag. 0.10E+00    5.3     0.08029540       -54.5506055618  4.47E-03
   183 Broy./Diag. 0.10E+00    5.3     0.01262324       -54.5219590209  2.86E-02
   184 Broy./Diag. 0.10E+00    5.3     0.03597095       -54.5401963149 -1.82E-02
   185 Broy./Diag. 0.10E+00    5.3     0.05620414       -54.5837430154 -4.35E-02
   186 Broy./Diag. 0.10E+00    5.3     0.09715690       -54.6029990361 -1.93E-02
   187 Broy./Diag. 0.10E+00    5.3     0.16387053       -54.6063352854 -3.34E-03
   188 Broy./Diag. 0.10E+00    5.4     0.21610794       -54.6040262477  2.31E-03
   189 Broy./Diag. 0.10E+00    5.3     0.21327541       -54.6004432554  3.58E-03
   190 Broy./Diag. 0.10E+00    5.3     0.12962413       -54.5979189508  2.52E-03
   191 Broy./Diag. 0.10E+00    5.3     0.17572102       -54.5781906269  1.97E-02
   192 Broy./Diag. 0.10E+00    5.3     0.16348085       -54.5514171513  2.68E-02
   193 Broy./Diag. 0.10E+00    5.4     0.12783879       -54.5212905496  3.01E-02
   194 Broy./Diag. 0.10E+00    5.3     0.11106111       -54.5008242158  2.05E-02
   195 Broy./Diag. 0.10E+00    5.3     0.01537391       -54.4967392050  4.09E-03
   196 Broy./Diag. 0.10E+00    5.3     0.02482188       -54.5063568052 -9.62E-03
   197 Broy./Diag. 0.10E+00    5.4     0.07575785       -54.4966488457  9.71E-03
   198 Broy./Diag. 0.10E+00    5.4     0.09334772       -54.4791076848  1.75E-02
   199 Broy./Diag. 0.10E+00    5.3     0.01904794       -54.5239457018 -4.48E-02
   200 Broy./Diag. 0.10E+00    5.3     0.09845165       -54.5250254580 -1.08E-03
   201 Broy./Diag. 0.10E+00    5.3     0.10470470       -54.5142204964  1.08E-02
   202 Broy./Diag. 0.10E+00    5.3     0.07191989       -54.4707010803  4.35E-02
   203 Broy./Diag. 0.10E+00    5.3     0.04544176       -54.4419896222  2.87E-02
   204 Broy./Diag. 0.10E+00    5.3     0.02586462       -54.4339281487  8.06E-03
   205 Broy./Diag. 0.10E+00    5.4     0.01446134       -54.4344876494 -5.60E-04
   206 Broy./Diag. 0.10E+00    5.3     0.01396855       -54.4220240663  1.25E-02
   207 Broy./Diag. 0.10E+00    5.3     0.02205660       -54.4208279796  1.20E-03
   208 Broy./Diag. 0.10E+00    5.3     0.01673730       -54.4283721889 -7.54E-03
   209 Broy./Diag. 0.10E+00    5.4     0.00876120       -54.4320652012 -3.69E-03
   210 Broy./Diag. 0.10E+00    5.3     0.00198265       -54.4314874634  5.78E-04
   211 Broy./Diag. 0.10E+00    5.4     0.00822642       -54.4288171304  2.67E-03
   212 Broy./Diag. 0.10E+00    5.3     0.00528218       -54.4289350488 -1.18E-04
   213 Broy./Diag. 0.10E+00    5.3     0.00151500       -54.4302985791 -1.36E-03
   214 Broy./Diag. 0.10E+00    5.3     0.00202823       -54.4314987750 -1.20E-03
   215 Broy./Diag. 0.10E+00    5.3     0.00086329       -54.4335278807 -2.03E-03
   216 Broy./Diag. 0.10E+00    5.3     0.00063002       -54.4351793455 -1.65E-03
   217 Broy./Diag. 0.10E+00    5.3     0.00100837       -54.4331655416  2.01E-03
   218 Broy./Diag. 0.10E+00    5.3     0.00029982       -54.4309916512  2.17E-03
   219 Broy./Diag. 0.10E+00    5.3     0.00140581       -54.4307884541  2.03E-04
   220 Broy./Diag. 0.10E+00    5.3     0.00194207       -54.4312733732 -4.85E-04
   221 Broy./Diag. 0.10E+00    5.3     0.00099164       -54.4307941555  4.79E-04
   222 Broy./Diag. 0.10E+00    5.3     0.00060853       -54.4306432014  1.51E-04
   223 Broy./Diag. 0.10E+00    5.4     0.00036871       -54.4308455813 -2.02E-04
   224 Broy./Diag. 0.10E+00    5.3     0.00125973       -54.4307229668  1.23E-04
   225 Broy./Diag. 0.10E+00    5.3     0.00111994       -54.4306340678  8.89E-05
   226 Broy./Diag. 0.10E+00    5.3     0.00421860       -54.4306812145 -4.71E-05
   227 Broy./Diag. 0.10E+00    5.3     0.00167466       -54.4302542995  4.27E-04
   228 Broy./Diag. 0.10E+00    5.3     0.00215350       -54.4300819242  1.72E-04
   229 Broy./Diag. 0.10E+00    5.3     0.00174545       -54.4302414471 -1.60E-04
   230 Broy./Diag. 0.10E+00    5.3     0.00070340       -54.4304803082 -2.39E-04
   231 Broy./Diag. 0.10E+00    5.3     0.00073225       -54.4305950993 -1.15E-04
   232 Broy./Diag. 0.10E+00    5.3     0.00011050       -54.4304878846  1.07E-04
   233 Broy./Diag. 0.10E+00    5.3     0.00020001       -54.4303853417  1.03E-04
   234 Broy./Diag. 0.10E+00    5.3     0.00086530       -54.4303635141  2.18E-05
   235 Broy./Diag. 0.10E+00    5.3     0.00075696       -54.4304096891 -4.62E-05
   236 Broy./Diag. 0.10E+00    5.3     0.00053263       -54.4304359704 -2.63E-05
   237 Broy./Diag. 0.10E+00    5.3     0.00030513       -54.4304494565 -1.35E-05
   238 Broy./Diag. 0.10E+00    5.3     0.00065805       -54.4303441875  1.05E-04
   239 Broy./Diag. 0.10E+00    5.3     0.00091350       -54.4303446655 -4.78E-07
   240 Broy./Diag. 0.10E+00    5.3     0.00107183       -54.4303879618 -4.33E-05
   241 Broy./Diag. 0.10E+00    5.3     0.00155295       -54.4304198746 -3.19E-05
   242 Broy./Diag. 0.10E+00    5.3     0.00245040       -54.4304142948  5.58E-06
   243 Broy./Diag. 0.10E+00    5.3     0.00461139       -54.4303901381  2.42E-05
   244 Broy./Diag. 0.10E+00    5.4     0.00835378       -54.4303628717  2.73E-05
   245 Broy./Diag. 0.10E+00    5.3     0.01656819       -54.4303391585  2.37E-05
   246 Broy./Diag. 0.10E+00    5.3     0.03174420       -54.4302511659  8.80E-05
   247 Broy./Diag. 0.10E+00    5.4     0.06065933       -54.4297842746  4.67E-04
   248 Broy./Diag. 0.10E+00    5.4     0.10263396       -54.4285000784  1.28E-03
   249 Broy./Diag. 0.10E+00    5.3     0.13587155       -54.4269237680  1.58E-03
   250 Broy./Diag. 0.10E+00    5.3     0.24730950       -54.4233554823  3.57E-03
   251 Broy./Diag. 0.10E+00    5.3     0.36474930       -54.4125997740  1.08E-02
   252 Broy./Diag. 0.10E+00    5.3     0.37719968       -54.3915723753  2.10E-02
   253 Broy./Diag. 0.10E+00    5.3     0.27174697       -54.3632394627  2.83E-02
   254 Broy./Diag. 0.10E+00    5.3     0.23514685       -54.3374518329  2.58E-02
   255 Broy./Diag. 0.10E+00    5.3     0.19574694       -54.3188073813  1.86E-02
   256 Broy./Diag. 0.10E+00    5.3     0.14188813       -54.3071823325  1.16E-02
   257 Broy./Diag. 0.10E+00    5.3     0.09427681       -54.3002567138  6.93E-03
   258 Broy./Diag. 0.10E+00    5.3     0.06899455       -54.2973382003  2.92E-03
   259 Broy./Diag. 0.10E+00    5.3     0.05060519       -54.2976379358 -3.00E-04
   260 Broy./Diag. 0.10E+00    5.3     0.05030090       -54.3072840955 -9.65E-03
   261 Broy./Diag. 0.10E+00    5.3     0.07022742       -54.3326515494 -2.54E-02
   262 Broy./Diag. 0.10E+00    5.3     0.12531267       -54.3705467687 -3.79E-02
   263 Broy./Diag. 0.10E+00    5.3     0.23807091       -54.3907387321 -2.02E-02
   264 Broy./Diag. 0.10E+00    5.3     0.30555931       -54.3141656383  7.66E-02
   265 Broy./Diag. 0.10E+00    5.3     0.25451338       -54.3405947497 -2.64E-02
   266 Broy./Diag. 0.10E+00    5.3     0.11594591       -54.2821163117  5.85E-02
   267 Broy./Diag. 0.10E+00    5.3     0.06136248       -54.2133676092  6.87E-02

 *** WARNING in pw/ps_wavelet_methods.F:238 :: Density non-zero on the ***
 *** edges of the unit cell: wrong results in WAVELET solver           ***

   268 Broy./Diag. 0.10E+00    5.3     0.18168393       -54.1956405991  1.77E-02
   269 Broy./Diag. 0.10E+00    5.4     0.13751913       -53.5793353262  6.16E-01
   270 Broy./Diag. 0.10E+00    5.3     0.13611042       -53.4643048516  1.15E-01

 *** WARNING in pw/ps_wavelet_methods.F:238 :: Density non-zero on the ***
 *** edges of the unit cell: wrong results in WAVELET solver           ***

   271 Broy./Diag. 0.10E+00    5.3     0.29053212       -53.2292324244  2.35E-01
   272 Broy./Diag. 0.10E+00    5.3     0.42139123       -53.3668985094 -1.38E-01
   273 Broy./Diag. 0.10E+00    5.4     0.23456332       -53.6383138888 -2.71E-01
   274 Broy./Diag. 0.10E+00    5.3     0.24946587       -53.5078090765  1.31E-01
   275 Broy./Diag. 0.10E+00    5.3     0.01820901       -53.6026525118 -9.48E-02
   276 Broy./Diag. 0.10E+00    5.3     0.00765702       -53.5614001220  4.13E-02
   277 Broy./Diag. 0.10E+00    5.3     0.04796811       -53.5762034630 -1.48E-02
   278 Broy./Diag. 0.10E+00    5.4     0.07842195       -53.6660768064 -8.99E-02
   279 Broy./Diag. 0.10E+00    5.3     0.05622012       -53.9948888631 -3.29E-01
   280 Broy./Diag. 0.10E+00    5.3     0.03935628       -54.2227453470 -2.28E-01

 *** WARNING in pw/ps_wavelet_methods.F:238 :: Density non-zero on the ***
 *** edges of the unit cell: wrong results in WAVELET solver           ***

   281 Broy./Diag. 0.10E+00    5.3     0.09297690       -54.4427942358 -2.20E-01
   282 Broy./Diag. 0.10E+00    5.3     0.20591722       -54.3667104329  7.61E-02
   283 Broy./Diag. 0.10E+00    5.3     0.02147678       -54.4186547298 -5.19E-02
   284 Broy./Diag. 0.10E+00    5.3     0.08191881       -54.5561720383 -1.38E-01
   285 Broy./Diag. 0.10E+00    5.3     0.02213546       -54.5792122083 -2.30E-02
   286 Broy./Diag. 0.10E+00    5.3     0.00577804       -54.5675594751  1.17E-02
   287 Broy./Diag. 0.10E+00    5.3     0.03518763       -54.5740067046 -6.45E-03
   288 Broy./Diag. 0.10E+00    5.3     0.03564420       -54.4846734846  8.93E-02
   289 Broy./Diag. 0.10E+00    5.3     0.04441364       -54.4397346038  4.49E-02
   290 Broy./Diag. 0.10E+00    5.3     0.02670596       -54.4164186002  2.33E-02
   291 Broy./Diag. 0.10E+00    5.3     0.02128612       -54.4102421443  6.18E-03
   292 Broy./Diag. 0.10E+00    5.3     0.01177204       -54.4406449545 -3.04E-02
   293 Broy./Diag. 0.10E+00    5.3     0.00521117       -54.4682146384 -2.76E-02
   294 Broy./Diag. 0.10E+00    5.3     0.04259132       -54.4383214974  2.99E-02
   295 Broy./Diag. 0.10E+00    5.4     0.03631455       -54.4389371188 -6.16E-04
   296 Broy./Diag. 0.10E+00    5.3     0.01194115       -54.4596517131 -2.07E-02
   297 Broy./Diag. 0.10E+00    5.4     0.00250867       -54.4632944111 -3.64E-03
   298 Broy./Diag. 0.10E+00    5.4     0.01241603       -54.4547067839  8.59E-03
   299 Broy./Diag. 0.10E+00    5.3     0.02267950       -54.4498359817  4.87E-03
   300 Broy./Diag. 0.10E+00    5.3     0.01669209       -54.4449924525  4.84E-03
   301 Broy./Diag. 0.10E+00    5.3     0.02588835       -54.4445272104  4.65E-04
   302 Broy./Diag. 0.10E+00    5.3     0.01333374       -54.4455189870 -9.92E-04
   303 Broy./Diag. 0.10E+00    5.3     0.00339607       -54.4389887504  6.53E-03
   304 Broy./Diag. 0.10E+00    5.3     0.01057689       -54.4333576564  5.63E-03
   305 Broy./Diag. 0.10E+00    5.3     0.00176403       -54.4336124206 -2.55E-04
   306 Broy./Diag. 0.10E+00    5.3     0.00131685       -54.4343675358 -7.55E-04
   307 Broy./Diag. 0.10E+00    5.4     0.00141336       -54.4316994621  2.67E-03
   308 Broy./Diag. 0.10E+00    5.3     0.00256551       -54.4310962660  6.03E-04
   309 Broy./Diag. 0.10E+00    5.3     0.00045960       -54.4323077925 -1.21E-03
   310 Broy./Diag. 0.10E+00    5.3     0.00291879       -54.4311513689  1.16E-03
   311 Broy./Diag. 0.10E+00    5.3     0.00104743       -54.4306012139  5.50E-04
   312 Broy./Diag. 0.10E+00    5.3     0.00075958       -54.4313457697 -7.45E-04
   313 Broy./Diag. 0.10E+00    5.3     0.00361670       -54.4322304695 -8.85E-04
   314 Broy./Diag. 0.10E+00    5.3     0.00073419       -54.4327130750 -4.83E-04
   315 Broy./Diag. 0.10E+00    5.3     0.00183707       -54.4322211344  4.92E-04
   316 Broy./Diag. 0.10E+00    5.3     0.00171016       -54.4321861712  3.50E-05
   317 Broy./Diag. 0.10E+00    5.3     0.00448730       -54.4325460663 -3.60E-04
   318 Broy./Diag. 0.10E+00    5.3     0.00369891       -54.4319004065  6.46E-04
   319 Broy./Diag. 0.10E+00    5.4     0.00444163       -54.4312748461  6.26E-04
   320 Broy./Diag. 0.10E+00    5.3     0.00926003       -54.4309958815  2.79E-04
   321 Broy./Diag. 0.10E+00    5.3     0.01695956       -54.4307051042  2.91E-04
[...]
 *** edges of the unit cell: wrong results in WAVELET solver           ***

   447 Broy./Diag. 0.10E+00    5.3     0.29748346       -54.1174051814 -4.44E-02
   448 Broy./Diag. 0.10E+00    5.3     0.13382564       -53.6367567664  4.81E-01

 *** WARNING in pw/ps_wavelet_methods.F:238 :: Density non-zero on the ***
 *** edges of the unit cell: wrong results in WAVELET solver           ***

   449 Broy./Diag. 0.10E+00    5.3     0.40894402       -53.6014425163  3.53E-02

 *** WARNING in pw/ps_wavelet_methods.F:238 :: Density non-zero on the ***
 *** edges of the unit cell: wrong results in WAVELET solver           ***

   450 Broy./Diag. 0.10E+00    5.3     0.37359097       -53.6726464487 -7.12E-02

 *** WARNING in pw/ps_wavelet_methods.F:238 :: Density non-zero on the ***
 *** edges of the unit cell: wrong results in WAVELET solver           ***

   451 Broy./Diag. 0.10E+00    5.3     0.25195353       -53.7036292507 -3.10E-02

 *** WARNING in pw/ps_wavelet_methods.F:238 :: Density non-zero on the ***
 *** edges of the unit cell: wrong results in WAVELET solver           ***

   452 Broy./Diag. 0.10E+00    5.3     0.29269770       -53.8157285036 -1.12E-01

 *** WARNING in pw/ps_wavelet_methods.F:238 :: Density non-zero on the ***
 *** edges of the unit cell: wrong results in WAVELET solver           ***

   453 Broy./Diag. 0.10E+00    5.4     0.21026169       -53.9806012824 -1.65E-01
   454 Broy./Diag. 0.10E+00    5.3     0.24835722       -54.0153486844 -3.47E-02

 *** WARNING in pw/ps_wavelet_methods.F:238 :: Density non-zero on the ***
 *** edges of the unit cell: wrong results in WAVELET solver           ***

   455 Broy./Diag. 0.10E+00    5.3     0.19151920       -54.0462867244 -3.09E-02

 *** WARNING in pw/ps_wavelet_methods.F:238 :: Density non-zero on the ***
 *** edges of the unit cell: wrong results in WAVELET solver           ***

   456 Broy./Diag. 0.10E+00    5.3     0.09956169       -53.7864490245  2.60E-01

 *** WARNING in pw/ps_wavelet_methods.F:238 :: Density non-zero on the ***
 *** edges of the unit cell: wrong results in WAVELET solver           ***

   457 Broy./Diag. 0.10E+00    5.3     0.42597666       -53.3656836225  4.21E-01

 *** WARNING in pw/ps_wavelet_methods.F:238 :: Density non-zero on the ***
 *** edges of the unit cell: wrong results in WAVELET solver           ***

   458 Broy./Diag. 0.10E+00    5.3     0.19506889       -53.5744317473 -2.09E-01

 *** WARNING in pw/ps_wavelet_methods.F:238 :: Density non-zero on the ***
 *** edges of the unit cell: wrong results in WAVELET solver           ***

   459 Broy./Diag. 0.10E+00    5.3     0.41685817       -54.3162491789 -7.42E-01

 *** WARNING in pw/ps_wavelet_methods.F:238 :: Density non-zero on the ***
 *** edges of the unit cell: wrong results in WAVELET solver           ***

   460 Broy./Diag. 0.10E+00    5.3     0.36184115       -54.6245818869 -3.08E-01

 *** WARNING in pw/ps_wavelet_methods.F:238 :: Density non-zero on the ***
 *** edges of the unit cell: wrong results in WAVELET solver           ***

   461 Broy./Diag. 0.10E+00    5.3     0.60875778       -54.5014646571  1.23E-01
   462 Broy./Diag. 0.10E+00    5.3     0.13895351       -54.4808123341  2.07E-02
   463 Broy./Diag. 0.10E+00    5.3     0.18586767       -54.3181491160  1.63E-01
   464 Broy./Diag. 0.10E+00    5.3     0.22080675       -54.1136757624  2.04E-01
   465 Broy./Diag. 0.10E+00    5.3     0.38505088       -53.9931942110  1.20E-01
   466 Broy./Diag. 0.10E+00    5.3     0.28319366       -54.1800330737 -1.87E-01
   467 Broy./Diag. 0.10E+00    5.3     0.07225221       -54.1939357580 -1.39E-02
   468 Broy./Diag. 0.10E+00    5.3     0.04440863       -54.0555478124  1.38E-01
   469 Broy./Diag. 0.10E+00    5.3     0.27495205       -54.0125101268  4.30E-02
   470 Broy./Diag. 0.10E+00    5.4     0.22405000       -54.0294538968 -1.69E-02
   471 Broy./Diag. 0.10E+00    5.3     0.10242288       -54.1420918251 -1.13E-01

 *** WARNING in pw/ps_wavelet_methods.F:238 :: Density non-zero on the ***
 *** edges of the unit cell: wrong results in WAVELET solver           ***

   472 Broy./Diag. 0.10E+00    5.3     0.21377295       -54.3254305636 -1.83E-01

 *** WARNING in pw/ps_wavelet_methods.F:238 :: Density non-zero on the ***
 *** edges of the unit cell: wrong results in WAVELET solver           ***

   473 Broy./Diag. 0.10E+00    5.3     0.41376332       -54.6125030321 -2.87E-01

 *** WARNING in pw/ps_wavelet_methods.F:238 :: Density non-zero on the ***
 *** edges of the unit cell: wrong results in WAVELET solver           ***

   474 Broy./Diag. 0.10E+00    5.3     0.28333951       -54.5995573400  1.29E-02
   475 Broy./Diag. 0.10E+00    5.3     0.16921992       -54.5152418156  8.43E-02
   476 Broy./Diag. 0.10E+00    5.4     0.04439166       -54.4525687402  6.27E-02
   477 Broy./Diag. 0.10E+00    5.3     0.00635213       -54.4991292535 -4.66E-02
   478 Broy./Diag. 0.10E+00    5.3     0.02646750       -54.5171381428 -1.80E-02
   479 Broy./Diag. 0.10E+00    5.3     0.37606119       -54.5451085597 -2.80E-02
   480 Broy./Diag. 0.10E+00    5.3     0.49664520       -54.7291960101 -1.84E-01
   481 Broy./Diag. 0.10E+00    5.4     0.43383448       -54.7871736663 -5.80E-02
   482 Broy./Diag. 0.10E+00    5.3     0.05659426       -54.7790848804  8.09E-03
   483 Broy./Diag. 0.10E+00    5.3     0.02363768       -54.6142727350  1.65E-01
   484 Broy./Diag. 0.10E+00    5.3     0.04500974       -54.5496725058  6.46E-02
   485 Broy./Diag. 0.10E+00    5.3     0.01445903       -54.3929869392  1.57E-01
   486 Broy./Diag. 0.10E+00    5.3     0.03000211       -54.3988766835 -5.89E-03
   487 Broy./Diag. 0.10E+00    5.3     0.07631353       -54.4121791356 -1.33E-02
   488 Broy./Diag. 0.10E+00    5.3     0.06738603       -54.4443117976 -3.21E-02
   489 Broy./Diag. 0.10E+00    5.3     0.30038628       -54.4205753027  2.37E-02
   490 Broy./Diag. 0.10E+00    5.3     0.32119513       -54.4740560741 -5.35E-02
   491 Broy./Diag. 0.10E+00    5.3     0.14289789       -54.4850079743 -1.10E-02
   492 Broy./Diag. 0.10E+00    5.4     0.14635414       -54.4667530188  1.83E-02
   493 Broy./Diag. 0.10E+00    5.4     0.11496206       -54.4095936144  5.72E-02
   494 Broy./Diag. 0.10E+00    5.3     0.11822819       -54.3961856613  1.34E-02
   495 Broy./Diag. 0.10E+00    5.4     0.06796454       -54.4144965333 -1.83E-02
   496 Broy./Diag. 0.10E+00    5.3     0.09293433       -54.4375883685 -2.31E-02
   497 Broy./Diag. 0.10E+00    5.3     0.17920808       -54.4722124105 -3.46E-02
   498 Broy./Diag. 0.10E+00    5.3     0.29425685       -54.5033868094 -3.12E-02
   499 Broy./Diag. 0.10E+00    5.3     0.45524942       -54.5189229397 -1.55E-02
   500 Broy./Diag. 0.10E+00    5.3     0.31164188       -54.5552467700 -3.63E-02

  Leaving inner SCF loop after reaching   500 steps.


  Electronic density on regular grids:         -6.1171418747        1.8828581253
  Core density on regular grids:                1.0000000000       -7.0000000000
  Hard and soft densities (Lebedev):          -10.3470180205       -8.4635890183
  Total Rho_soft + Rho1_hard - Rho1_soft       -8.0005708769
  Total charge density (r-space):              -7.0005708769
  Total Rho_soft + Rho0_soft (g-space):        -0.0005708903

  Overlap energy of the core charge distribution:               0.00000008866015
  Self energy of the core charge distribution:                -49.21005070205399
  Core Hamiltonian energy:                                     -6.76356275609866
  Hartree energy:                                              18.00349237791002
  Exchange-correlation energy:                                 -2.25123662640506
  Hartree-Fock Exchange energy:                                -1.70204399451902

  GAPW| Exc from hard and soft atomic rho1:                    -3.13822048852234
  GAPW| local Eh = 1 center integrals:                         -9.49362466897532

  Total energy:                                               -54.55524677000423

 *******************************************************************************
 *   ___                                                                       *
 *  /   \                                                                      *
 * [ABORT]                                                                     *
 *  \___/     SCF run NOT converged. To continue the calculation regardless,   *
 *    |             please set the keyword IGNORE_CONVERGENCE_FAILURE.         *
 *  O/|                                                                        *
 * /| |                                                                        *
 * / \                                                            qs_scf.F:611 *
 *******************************************************************************


 ===== Routine Calling Stack ===== 

            3 scf_env_do_scf
            2 qs_energies
            1 CP2K

 *******************************************************************************
 *   ___                                                                       *
 *  /   \                                                                      *
 * [ABORT]                                                                     *
 *  \___/     SCF run NOT converged. To continue the calculation regardless,   *
 *    |             please set the keyword IGNORE_CONVERGENCE_FAILURE.         *
 *  O/|                                                                        *
 * /| |                                                                        *
 * / \                                                            qs_scf.F:611 *
 *******************************************************************************


 ===== Routine Calling Stack ===== 

            3 scf_env_do_scf
            2 qs_energies
            1 CP2K

 *******************************************************************************
 *   ___                                                                       *
 *  /   \                                                                      *
 * [ABORT]                                                                     *
 *  \___/     SCF run NOT converged. To continue the calculation regardless,   *
 *    |             please set the keyword IGNORE_CONVERGENCE_FAILURE.         *
 *  O/|                                                                        *
 * /| |                                                                        *
 * / \                                                            qs_scf.F:611 *
 *******************************************************************************


 ===== Routine Calling Stack ===== 

            3 scf_env_do_scf
            2 qs_energies
            1 CP2K

 *******************************************************************************
 *   ___                                                                       *
 *  /   \                                                                      *
 * [ABORT]                                                                     *
 *  \___/     SCF run NOT converged. To continue the calculation regardless,   *
 *    |             please set the keyword IGNORE_CONVERGENCE_FAILURE.         *
 *  O/|                                                                        *
 * /| |                                                                        *
 * / \                                                            qs_scf.F:611 *
 *******************************************************************************


 ===== Routine Calling Stack ===== 

            3 scf_env_do_scf
            2 qs_energies
            1 CP2K

 *******************************************************************************
 *   ___                                                                       *
 *  /   \                                                                      *
 * [ABORT]                                                                     *
 *  \___/     SCF run NOT converged. To continue the calculation regardless,   *
 *    |             please set the keyword IGNORE_CONVERGENCE_FAILURE.         *
 *  O/|                                                                        *
 * /| |                                                                        *
 * / \                                                            qs_scf.F:611 *
 *******************************************************************************


 ===== Routine Calling Stack ===== 

            3 scf_env_do_scf
            2 qs_energies
            1 CP2K

 *******************************************************************************
 *   ___                                                                       *
 *  /   \                                                                      *
 * [ABORT]                                                                     *
 *  \___/     SCF run NOT converged. To continue the calculation regardless,   *
 *    |             please set the keyword IGNORE_CONVERGENCE_FAILURE.         *
 *  O/|                                                                        *
 * /| |                                                                        *
 * / \                                                            qs_scf.F:611 *
 *******************************************************************************


 ===== Routine Calling Stack ===== 

            3 scf_env_do_scf
            2 qs_energies
            1 CP2K

 *******************************************************************************
 *   ___                                                                       *
 *  /   \                                                                      *
 * [ABORT]                                                                     *
 *  \___/     SCF run NOT converged. To continue the calculation regardless,   *
 *    |             please set the keyword IGNORE_CONVERGENCE_FAILURE.         *
 *  O/|                                                                        *
 * /| |                                                                        *
 * / \                                                            qs_scf.F:611 *
 *******************************************************************************


 ===== Routine Calling Stack ===== 

            3 scf_env_do_scf
            2 qs_energies
            1 CP2K

 *******************************************************************************
 *   ___                                                                       *
 *  /   \                                                                      *
 * [ABORT]                                                                     *
 *  \___/     SCF run NOT converged. To continue the calculation regardless,   *
 *    |             please set the keyword IGNORE_CONVERGENCE_FAILURE.         *
 *  O/|                                                                        *
 * /| |                                                                        *
 * / \                                                            qs_scf.F:611 *
 *******************************************************************************


 ===== Routine Calling Stack ===== 

            3 scf_env_do_scf
            2 qs_energies
            1 CP2K

 *******************************************************************************
 *   ___                                                                       *
 *  /   \                                                                      *
 * [ABORT]                                                                     *
 *  \___/     SCF run NOT converged. To continue the calculation regardless,   *
 *    |             please set the keyword IGNORE_CONVERGENCE_FAILURE.         *
 *  O/|                                                                        *
 * /| |                                                                        *
 * / \                                                            qs_scf.F:611 *
 *******************************************************************************


 ===== Routine Calling Stack ===== 

            3 scf_env_do_scf
            2 qs_energies
            1 CP2K

 *******************************************************************************
 *   ___                                                                       *
 *  /   \                                                                      *
 * [ABORT]                                                                     *
 *  \___/     SCF run NOT converged. To continue the calculation regardless,   *
 *    |             please set the keyword IGNORE_CONVERGENCE_FAILURE.         *
 *  O/|                                                                        *
 * /| |                                                                        *
 * / \                                                            qs_scf.F:611 *
 *******************************************************************************


 ===== Routine Calling Stack ===== 

            3 scf_env_do_scf
            2 qs_energies
            1 CP2K

 *******************************************************************************
 *   ___                                                                       *
 *  /   \                                                                      *
 * [ABORT]                                                                     *
 *  \___/     SCF run NOT converged. To continue the calculation regardless,   *
 *    |             please set the keyword IGNORE_CONVERGENCE_FAILURE.         *
 *  O/|                                                                        *
 * /| |                                                                        *
 * / \                                                            qs_scf.F:611 *
 *******************************************************************************


 ===== Routine Calling Stack ===== 

            3 scf_env_do_scf
            2 qs_energies
            1 CP2K

 *******************************************************************************
 *   ___                                                                       *
 *  /   \                                                                      *
 * [ABORT]                                                                     *
 *  \___/     SCF run NOT converged. To continue the calculation regardless,   *
 *    |             please set the keyword IGNORE_CONVERGENCE_FAILURE.         *
 *  O/|                                                                        *
 * /| |                                                                        *
 * / \                                                            qs_scf.F:611 *
 *******************************************************************************


 ===== Routine Calling Stack ===== 

            3 scf_env_do_scf
            2 qs_energies
            1 CP2K

 *******************************************************************************
 *   ___                                                                       *
 *  /   \                                                                      *
 * [ABORT]                                                                     *
 *  \___/     SCF run NOT converged. To continue the calculation regardless,   *
 *    |             please set the keyword IGNORE_CONVERGENCE_FAILURE.         *
 *  O/|                                                                        *
 * /| |                                                                        *
 * / \                                                            qs_scf.F:611 *
 *******************************************************************************


 ===== Routine Calling Stack ===== 

            3 scf_env_do_scf
            2 qs_energies
            1 CP2K
