 DBCSR| CPU Multiplication driver                                           BLAS (U)
 DBCSR| Multrec recursion limit                                              512 (U)
 DBCSR| Multiplication stack size                                           1000 (D)
 DBCSR| Maximum elements for images                                    UNLIMITED (U)
 DBCSR| Multiplicative factor virtual images                                   1 (U)
 DBCSR| Use multiplication densification                                       T (D)
 DBCSR| Multiplication size stacks                                             3 (U)
 DBCSR| Use memory pool for CPU allocation                                     F (U)
 DBCSR| Number of 3D layers                                               SINGLE (U)
 DBCSR| Use MPI memory allocation                                              F (U)
 DBCSR| Use RMA algorithm                                                      F (U)
 DBCSR| Use Communication thread                                               T (U)
 DBCSR| Communication thread load                                             75 (D)
 DBCSR| MPI: My process id                                                     0
 DBCSR| MPI: Number of processes                                              24
 DBCSR| OMP: Current number of threads                                         4
 DBCSR| OMP: Max number of threads                                             4
 DBCSR| Split modifier for TAS multiplication algorithm                  1.0E+00 (U)


  **** **** ******  **  PROGRAM STARTED AT               2025-03-08 02:21:34.896
 ***** ** ***  *** **   PROGRAM STARTED ON                          i04r10c02s12
 **    ****   ******    PROGRAM STARTED BY                               di38fab
 ***** **    ** ** **   PROGRAM PROCESS ID                                725255
  **** **  *******  **  PROGRAM STARTED IN /hppfs/scratch/04/di38fab/05_MOL/W4-1
                                           1+ALK/nh/SZVSR

 CP2K| version string:                 CP2K version 2025.1 (Development Version)
 CP2K| source code revision number:                                  git:47877ba
 CP2K| cp2kflags: omp libint fftw3 libxc parallel scalapack max_contr=4         
 CP2K| is freely available from                            https://www.cp2k.org/
 CP2K| Program compiled at                          Thu Feb 20 16:00:34 CET 2025
 CP2K| Program compiled on                                               login04
 CP2K| Program compiled for                                        Supermuc-foss
 CP2K| Data directory path          /hppfs/work/pn36zo/di38fab/newcp2k/cp2k/data
 CP2K| Input file name                                                    GW.inp

 GLOBAL| Force Environment number                                              1
 GLOBAL| Basis set file name            /hppfs/scratch/04/di38fab/04_TMD/BASIS_A
 GLOBAL| Potential file name            /hppfs/work/pn36zo/di38fab/cp2k/data/ALL
 GLOBAL| MM Potential file name                                     MM_POTENTIAL
 GLOBAL| Coordinate file name                                      __STD_INPUT__
 GLOBAL| Method name                                                        CP2K
 GLOBAL| Project name                                                       MoS2
 GLOBAL| Run type                                                         ENERGY
 GLOBAL| FFT library                                                       FFTW3
 GLOBAL| Diagonalization library                                       ScaLAPACK
 GLOBAL| DGEMM library                                                      BLAS
 GLOBAL| Orthonormality check for eigenvectors                          DISABLED
 GLOBAL| Matrix multiplication library                                 ScaLAPACK
 GLOBAL| All-to-all communication in single precision                          F
 GLOBAL| FFTs using library dependent lengths                                  F
 GLOBAL| Grid backend                                                       AUTO
 GLOBAL| Global print level                                               MEDIUM
 GLOBAL| MPI I/O enabled                                                       T
 GLOBAL| Total number of message passing processes                            24
 GLOBAL| Number of threads for this process                                    4
 GLOBAL| This output is from process                                           0
 GLOBAL| OpenMP stack size per thread (OMP_STACKSIZE)                    default
 GLOBAL| CPU model name             Intel(R) Xeon(R) Platinum 8174 CPU @ 3.10GHz

 MEMORY| system memory details [Kb]
 MEMORY|                        rank 0           min           max       average
 MEMORY| MemTotal             98436660      98436660      98436868      98436764
 MEMORY| MemFree              83873372      83867472      83873372      83870422
 MEMORY| Buffers                     0             0             0             0
 MEMORY| Cached                2402068       2402068       2408248       2405158
 MEMORY| Slab                  1229164       1228140       1229164       1228652
 MEMORY| SReclaimable           270060        265016        270060        267538
 MEMORY| MemLikelyFree        86545500      86540736      86545500      86543118


 *** Fundamental physical constants (SI units) ***

 *** Literature: B. J. Mohr and B. N. Taylor,
 ***             CODATA recommended values of the fundamental physical
 ***             constants: 2006, Web Version 5.1
 ***             http://physics.nist.gov/constants

 Speed of light in vacuum [m/s]                             2.99792458000000E+08
 Magnetic constant or permeability of vacuum [N/A**2]       1.25663706143592E-06
 Electric constant or permittivity of vacuum [F/m]          8.85418781762039E-12
 Planck constant (h) [J*s]                                  6.62606896000000E-34
 Planck constant (h-bar) [J*s]                              1.05457162825177E-34
 Elementary charge [C]                                      1.60217648700000E-19
 Electron mass [kg]                                         9.10938215000000E-31
 Electron g factor [ ]                                     -2.00231930436220E+00
 Proton mass [kg]                                           1.67262163700000E-27
 Fine-structure constant                                    7.29735253760000E-03
 Rydberg constant [1/m]                                     1.09737315685270E+07
 Avogadro constant [1/mol]                                  6.02214179000000E+23
 Boltzmann constant [J/K]                                   1.38065040000000E-23
 Atomic mass unit [kg]                                      1.66053878200000E-27
 Bohr radius [m]                                            5.29177208590000E-11

 *** Conversion factors ***

 [u] -> [a.u.]                                              1.82288848426455E+03
 [Angstrom] -> [Bohr] = [a.u.]                              1.88972613288564E+00
 [a.u.] = [Bohr] -> [Angstrom]                              5.29177208590000E-01
 [a.u.] -> [s]                                              2.41888432650478E-17
 [a.u.] -> [fs]                                             2.41888432650478E-02
 [a.u.] -> [J]                                              4.35974393937059E-18
 [a.u.] -> [N]                                              8.23872205491840E-08
 [a.u.] -> [K]                                              3.15774647902944E+05
 [a.u.] -> [kJ/mol]                                         2.62549961709828E+03
 [a.u.] -> [kcal/mol]                                       6.27509468713739E+02
 [a.u.] -> [Pa]                                             2.94210107994716E+13
 [a.u.] -> [bar]                                            2.94210107994716E+08
 [a.u.] -> [atm]                                            2.90362800883016E+08
 [a.u.] -> [eV]                                             2.72113838565563E+01
 [a.u.] -> [Hz]                                             6.57968392072181E+15
 [a.u.] -> [1/cm] (wave numbers)                            2.19474631370540E+05
 [a.u./Bohr**2] -> [1/cm]                                   5.14048714338585E+03
 

 CELL_TOP| Volume [angstrom^3]:                                     27000.000000
 CELL_TOP| Vector a [angstrom    30.000     0.000     0.000   |a| =    30.000000
 CELL_TOP| Vector b [angstrom     0.000    30.000     0.000   |b| =    30.000000
 CELL_TOP| Vector c [angstrom     0.000     0.000    30.000   |c| =    30.000000
 CELL_TOP| Angle (b,c), alpha [degree]:                                90.000000
 CELL_TOP| Angle (a,c), beta  [degree]:                                90.000000
 CELL_TOP| Angle (a,b), gamma [degree]:                                90.000000
 CELL_TOP| Numerically orthorhombic:                                         YES
 CELL_TOP| Periodicity                                                      NONE

 GENERATE|  Preliminary Number of Bonds generated:                             0
 GENERATE|  Achieved consistency in connectivity generation.

 CELL| Volume [angstrom^3]:                                         27000.000000
 CELL| Vector a [angstrom]:      30.000     0.000     0.000   |a| =    30.000000
 CELL| Vector b [angstrom]:       0.000    30.000     0.000   |b| =    30.000000
 CELL| Vector c [angstrom]:       0.000     0.000    30.000   |c| =    30.000000
 CELL| Angle (b,c), alpha [degree]:                                    90.000000
 CELL| Angle (a,c), beta  [degree]:                                    90.000000
 CELL| Angle (a,b), gamma [degree]:                                    90.000000
 CELL| Numerically orthorhombic:                                             YES
 CELL| Periodicity                                                          NONE

 CELL_REF| Volume [angstrom^3]:                                     27000.000000
 CELL_REF| Vector a [angstrom    30.000     0.000     0.000   |a| =    30.000000
 CELL_REF| Vector b [angstrom     0.000    30.000     0.000   |b| =    30.000000
 CELL_REF| Vector c [angstrom     0.000     0.000    30.000   |c| =    30.000000
 CELL_REF| Angle (b,c), alpha [degree]:                                90.000000
 CELL_REF| Angle (a,c), beta  [degree]:                                90.000000
 CELL_REF| Angle (a,b), gamma [degree]:                                90.000000
 CELL_REF| Numerically orthorhombic:                                         YES
 CELL_REF| Periodicity                                                      NONE

 *******************************************************************************
 *******************************************************************************
 **                                                                           **
 **     #####                         ##              ##                      **
 **    ##   ##            ##          ##              ##                      **
 **   ##     ##                       ##            ######                    **
 **   ##     ##  ##   ##  ##   #####  ##  ##   ####   ##    #####    #####    **
 **   ##     ##  ##   ##  ##  ##      ## ##   ##      ##   ##   ##  ##   ##   **
 **   ##  ## ##  ##   ##  ##  ##      ####     ###    ##   ######   ######    **
 **    ##  ###   ##   ##  ##  ##      ## ##      ##   ##   ##       ##        **
 **     #######   #####   ##   #####  ##  ##  ####    ##    #####   ##        **
 **           ##                                                    ##        **
 **                                                                           **
 **                                                ... make the atoms dance   **
 **                                                                           **
 **            Copyright (C) by CP2K developers group (2000-2025)             **
 **                      J. Chem. Phys. 152, 194103 (2020)                    **
 **                                                                           **
 *******************************************************************************

 DFT| Spin restricted Kohn-Sham (RKS) calculation                            RKS
 DFT| Multiplicity                                                             1
 DFT| Number of spin states                                                    1
 DFT| Charge                                                                   0
 DFT| Self-interaction correction (SIC)                                       NO
 DFT| Cutoffs: density                                              1.000000E-10
 DFT|          gradient                                             1.000000E-10
 DFT|          tau                                                  1.000000E-10
 DFT|          cutoff_smoothing_range                               0.000000E+00
 DFT| XC density smoothing                                                  NONE
 DFT| XC derivatives                                                          PW

 FUNCTIONAL| PBE:
 FUNCTIONAL| J.P.Perdew, K.Burke, M.Ernzerhof, Phys. Rev. Letter, vol. 77, n 18,
 FUNCTIONAL|  pp. 3865-3868, (1996)sx=0.750sc=1.000{spin unpolarized}           


 QS| Method:                                                                GAPW
 QS| Density plane wave grid type                        NON-SPHERICAL FULLSPACE
 QS| Number of grid levels:                                                    4
 QS| Density cutoff [a.u.]:                                                250.0
 QS| Multi grid cutoff [a.u.]: 1) grid level                               250.0
 QS|                           2) grid level                                83.3
 QS|                           3) grid level                                27.8
 QS|                           4) grid level                                 9.3
 QS| Grid level progression factor:                                          3.0
 QS| Relative density cutoff [a.u.]:                                        50.0
 QS| Interaction thresholds: eps_pgf_orb:                                1.0E-12
 QS|                         eps_filter_matrix:                          0.0E+00
 QS|                         eps_core_charge:                            1.0E-14
 QS|                         eps_rho_gspace:                             1.0E-12
 QS|                         eps_rho_rspace:                             1.0E-12
 QS|                         eps_gvg_rspace:                             1.0E-06
 QS|                         eps_ppl:                                    1.0E-02
 QS|                         eps_ppnl:                                   1.0E-08
 QS| GAPW|      One center basis from orbital basis primitives
 QS| GAPW|                   eps_fit:                                    1.0E-04
 QS| GAPW|                   eps_iso:                                    1.0E-12
 QS| GAPW|                   eps_svd:                                    1.0E-08
 QS| GAPW|                   eps_cpc:                                    1.0E-12
 QS| GAPW|   atom-r-grid: quadrature:                                     GC_LOG
 QS| GAPW|      atom-s-grid:  max l :                                          4
 QS| GAPW|      max_l_rho0 :                                                   2
 QS| GAPW|      At least one kind is NOT PAW, i.e. it has only soft AO 
 QS| GAPW|      The NOT PAW atoms are treated fully GPW


 ATOMIC KIND INFORMATION

  1. Atomic kind: N                                     Number of atoms:       1

     Orbital Basis Set                                      aug-SZV-MOLOPT-ae-SR

       Number of orbital shell sets:                                           2
       Number of orbital shells:                                               6
       Number of primitive Cartesian functions:                                7
       Number of Cartesian basis functions:                                   15
       Number of spherical basis functions:                                   14
       Norm type:                                                              2

       Normalised Cartesian orbitals:

                        Set   Shell   Orbital            Exponent    Coefficient

                          1       1    1s                0.112012       0.000000
                                                         0.285714       0.194997
                                                         0.878497       0.258372
                                                         3.780456      -0.193164

                          1       2    2s                0.112012       0.083551
                                                         0.285714      -0.189186
                                                         0.878497      -0.469875
                                                         3.780456      -0.002085

                          1       3    2px               0.112012       0.000000
                                                         0.285714       0.116706
                                                         0.878497       0.736704
                                                         3.780456       1.171553
                          1       3    2py               0.112012       0.000000
                                                         0.285714       0.116706
                                                         0.878497       0.736704
                                                         3.780456       1.171553
                          1       3    2pz               0.112012       0.000000
                                                         0.285714       0.116706
                                                         0.878497       0.736704
                                                         3.780456       1.171553

                          1       4    3px               0.112012       0.141957
                                                         0.285714      -0.286713
                                                         0.878497       0.074784
                                                         3.780456       0.008085
                          1       4    3py               0.112012       0.141957
                                                         0.285714      -0.286713
                                                         0.878497       0.074784
                                                         3.780456       0.008085
                          1       4    3pz               0.112012       0.141957
                                                         0.285714      -0.286713
                                                         0.878497       0.074784
                                                         3.780456       0.008085

                          1       5    3dx2              0.112012      -0.000364
                                                         0.285714       0.186009
                                                         0.878497      -0.044751
                                                         3.780456       1.815169
                          1       5    3dxy              0.112012      -0.000630
                                                         0.285714       0.322177
                                                         0.878497      -0.077512
                                                         3.780456       3.143965
                          1       5    3dxz              0.112012      -0.000630
                                                         0.285714       0.322177
                                                         0.878497      -0.077512
                                                         3.780456       3.143965
                          1       5    3dy2              0.112012      -0.000364
                                                         0.285714       0.186009
                                                         0.878497      -0.044751
                                                         3.780456       1.815169
                          1       5    3dyz              0.112012      -0.000630
                                                         0.285714       0.322177
                                                         0.878497      -0.077512
                                                         3.780456       3.143965
                          1       5    3dz2              0.112012      -0.000364
                                                         0.285714       0.186009
                                                         0.878497      -0.044751
                                                         3.780456       1.815169

                          2       1    1s               99.106169       3.454881
                                                        18.052312       3.341410
                                                         4.885660       1.041372

     RI Auxiliary Basis Set             RI_aug-SZV-MOLOPT-ae-SR_N_RI_089_s_p_d_f

       Number of orbital shell sets:                                          21
       Number of orbital shells:                                              21
       Number of primitive Cartesian functions:                               21
       Number of Cartesian basis functions:                                  120
       Number of spherical basis functions:                                   89
       Norm type:                                                              2

       Normalised Cartesian orbitals:

                        Set   Shell   Orbital            Exponent    Coefficient

                          1       1    1s                0.267502       0.265097

                          2       1    7px               0.363169       0.401861
                          2       1    7py               0.363169       0.401861
                          2       1    7pz               0.363169       0.401861

                          3       1   12dx2              0.369517       0.288250
                          3       1   12dxy              0.369517       0.499264
                          3       1   12dxz              0.369517       0.499264
                          3       1   12dy2              0.369517       0.288250
                          3       1   12dyz              0.369517       0.499264
                          3       1   12dz2              0.369517       0.288250

                          4       1    2s                0.470345       0.404783

                          5       1   16fx3              0.516119       0.332385
                          5       1   16fx2y             0.516119       0.743236
                          5       1   16fx2z             0.516119       0.743236
                          5       1   16fxy2             0.516119       0.743236
                          5       1   16fxyz             0.516119       1.287322
                          5       1   16fxz2             0.516119       0.743236
                          5       1   16fy3              0.516119       0.332385
                          5       1   16fy2z             0.516119       0.743236
                          5       1   16fyz2             0.516119       0.743236
                          5       1   16fz3              0.516119       0.332385

                          6       1   13dx2              0.573630       0.622322
                          6       1   13dxy              0.573630       1.077893
                          6       1   13dxz              0.573630       1.077893
                          6       1   13dy2              0.573630       0.622322
                          6       1   13dyz              0.573630       1.077893
                          6       1   13dz2              0.573630       0.622322

                          7       1    8px               0.636008       0.809596
                          7       1    8py               0.636008       0.809596
                          7       1    8pz               0.636008       0.809596

                          8       1   19gx4              0.870859       0.760838
                          8       1   19gx3y             0.870859       2.012988
                          8       1   19gx3z             0.870859       2.012988
                          8       1   19gx2y2            0.870859       2.598756
                          8       1   19gx2yz            0.870859       4.501178
                          8       1   19gx2z2            0.870859       2.598756
                          8       1   19gxy3             0.870859       2.012988
                          8       1   19gxy2z            0.870859       4.501178
                          8       1   19gxyz2            0.870859       4.501178
                          8       1   19gxz3             0.870859       2.012988
                          8       1   19gy4              0.870859       0.760838
                          8       1   19gy3z             0.870859       2.012988
                          8       1   19gy2z2            0.870859       2.598756
                          8       1   19gyz3             0.870859       2.012988
                          8       1   19gz4              0.870859       0.760838

                          9       1   17fx3              1.154647       2.034537
                          9       1   17fx2y             1.154647       4.549363
                          9       1   17fx2z             1.154647       4.549363
                          9       1   17fxy2             1.154647       4.549363
                          9       1   17fxyz             1.154647       7.879729
                          9       1   17fxz2             1.154647       4.549363
                          9       1   17fy3              1.154647       2.034537
                          9       1   17fy2z             1.154647       4.549363
                          9       1   17fyz2             1.154647       4.549363
                          9       1   17fz3              1.154647       2.034537

                         10       1   20gx4              1.247848       2.045878
                         10       1   20gx3y             1.247848       5.412884
                         10       1   20gx3z             1.247848       5.412884
                         10       1   20gx2y2            1.247848       6.988003
                         10       1   20gx2yz            1.247848      12.103577
                         10       1   20gx2z2            1.247848       6.988003
                         10       1   20gxy3             1.247848       5.412884
                         10       1   20gxy2z            1.247848      12.103577
                         10       1   20gxyz2            1.247848      12.103577
                         10       1   20gxz3             1.247848       5.412884
                         10       1   20gy4              1.247848       2.045878
                         10       1   20gy3z             1.247848       5.412884
                         10       1   20gy2z2            1.247848       6.988003
                         10       1   20gyz3             1.247848       5.412884
                         10       1   20gz4              1.247848       2.045878

                         11       1    3s                1.608218       1.017815

                         12       1   21gx4              1.820317       5.778825
                         12       1   21gx3y             1.820317      15.289334
                         12       1   21gx3z             1.820317      15.289334
                         12       1   21gx2y2            1.820317      19.738445
                         12       1   21gx2yz            1.820317      34.187990
                         12       1   21gx2z2            1.820317      19.738445
                         12       1   21gxy3             1.820317      15.289334
                         12       1   21gxy2z            1.820317      34.187990
                         12       1   21gxyz2            1.820317      34.187990
                         12       1   21gxz3             1.820317      15.289334
                         12       1   21gy4              1.820317       5.778825
                         12       1   21gy3z             1.820317      15.289334
                         12       1   21gy2z2            1.820317      19.738445
                         12       1   21gyz3             1.820317      15.289334
                         12       1   21gz4              1.820317       5.778825

                         13       1   14dx2              2.087918       5.969089
                         13       1   14dxy              2.087918      10.338765
                         13       1   14dxz              2.087918      10.338765
                         13       1   14dy2              2.087918       5.969089
                         13       1   14dyz              2.087918      10.338765
                         13       1   14dz2              2.087918       5.969089

                         14       1    9px               2.537910       4.565993
                         14       1    9py               2.537910       4.565993
                         14       1    9pz               2.537910       4.565993

                         15       1   18fx3              3.628403      26.749427
                         15       1   18fx2y             3.628403      59.813538
                         15       1   18fx2z             3.628403      59.813538
                         15       1   18fxy2             3.628403      59.813538
                         15       1   18fxyz             3.628403     103.600086
                         15       1   18fxz2             3.628403      59.813538
                         15       1   18fy3              3.628403      26.749427
                         15       1   18fy2z             3.628403      59.813538
                         15       1   18fyz2             3.628403      59.813538
                         15       1   18fz3              3.628403      26.749427

                         16       1   15dx2              5.366720      31.145839
                         16       1   15dxy              5.366720      53.946175
                         16       1   15dxz              5.366720      53.946175
                         16       1   15dy2              5.366720      31.145839
                         16       1   15dyz              5.366720      53.946175
                         16       1   15dz2              5.366720      31.145839

                         17       1    4s                7.348149       3.180853

                         18       1   10px               7.396841      17.387931
                         18       1   10py               7.396841      17.387931
                         18       1   10pz               7.396841      17.387931

                         19       1   11px              21.508501      66.024142
                         19       1   11py              21.508501      66.024142
                         19       1   11pz              21.508501      66.024142

                         20       1    5s               29.895673       9.112055

                         21       1    6s              109.779167      24.171302

       Atomic covalent radius [Angstrom]:                                  0.750

       Atomic van der Waals radius [Angstrom]:                             1.550

     The atoms of this atomic kind are PAW atoms (GAPW):
       Hard Gaussian function radius:                                      1.512
       Rho0 radius:                                                        1.512
       Maximum GTO radius used for PAW projector construction:            24.566

     GAPW Soft Basis Set                               aug-SZV-MOLOPT-ae-SR_soft

       Number of orbital shell sets:                                           2
       Number of orbital shells:                                               6
       Number of primitive Cartesian functions:                                4
       Number of Cartesian basis functions:                                   15
       Number of spherical basis functions:                                   14
       Norm type:                                                              2

       Normalised Cartesian orbitals:

                        Set   Shell   Orbital            Exponent    Coefficient

                          1       1    1s                0.112012       0.000000
                                                         0.285714       0.194997
                                                         0.878497       0.258372
                                                         3.780456      -0.193164

                          1       2    2s                0.112012       0.083551
                                                         0.285714      -0.189186
                                                         0.878497      -0.469875
                                                         3.780456      -0.002085

                          1       3    2px               0.112012       0.000000
                                                         0.285714       0.116706
                                                         0.878497       0.736704
                                                         3.780456       1.171553
                          1       3    2py               0.112012       0.000000
                                                         0.285714       0.116706
                                                         0.878497       0.736704
                                                         3.780456       1.171553
                          1       3    2pz               0.112012       0.000000
                                                         0.285714       0.116706
                                                         0.878497       0.736704
                                                         3.780456       1.171553

                          1       4    3px               0.112012       0.141957
                                                         0.285714      -0.286713
                                                         0.878497       0.074784
                                                         3.780456       0.008085
                          1       4    3py               0.112012       0.141957
                                                         0.285714      -0.286713
                                                         0.878497       0.074784
                                                         3.780456       0.008085
                          1       4    3pz               0.112012       0.141957
                                                         0.285714      -0.286713
                                                         0.878497       0.074784
                                                         3.780456       0.008085

                          1       5    3dx2              0.112012      -0.000364
                                                         0.285714       0.186009
                                                         0.878497      -0.044751
                                                         3.780456       1.815169
                          1       5    3dxy              0.112012      -0.000630
                                                         0.285714       0.322177
                                                         0.878497      -0.077512
                                                         3.780456       3.143965
                          1       5    3dxz              0.112012      -0.000630
                                                         0.285714       0.322177
                                                         0.878497      -0.077512
                                                         3.780456       3.143965
                          1       5    3dy2              0.112012      -0.000364
                                                         0.285714       0.186009
                                                         0.878497      -0.044751
                                                         3.780456       1.815169
                          1       5    3dyz              0.112012      -0.000630
                                                         0.285714       0.322177
                                                         0.878497      -0.077512
                                                         3.780456       3.143965
                          1       5    3dz2              0.112012      -0.000364
                                                         0.285714       0.186009
                                                         0.878497      -0.044751
                                                         3.780456       1.815169

                          2       1    1s         

     AE Potential information for                                            ALL

       Description:                                       All-electron potential
                                          Krack, Parrinello, PCCP 2, 2105 (2000)

       Gaussian exponent of the core charge distribution:               5.979100
       Electronic configuration (s p d ...):                           4   3   0

  2. Atomic kind: H                                     Number of atoms:       1

     Orbital Basis Set                                      aug-SZV-MOLOPT-ae-SR

       Number of orbital shell sets:                                           1
       Number of orbital shells:                                               4
       Number of primitive Cartesian functions:                                4
       Number of Cartesian basis functions:                                    6
       Number of spherical basis functions:                                    6
       Norm type:                                                              2

       Normalised Cartesian orbitals:

                        Set   Shell   Orbital            Exponent    Coefficient

                          1       1    2s                0.065428       0.000000
                                                         0.168855       0.083474
                                                         0.623914       0.267839
                                                         3.425251       0.276934

                          1       2    3s                0.065428      -0.066952
                                                         0.168855       0.261968
                                                         0.623914       0.081548
                                                         3.425251      -0.022414

                          1       3    4s                0.065428       0.165615
                                                         0.168855      -0.226449
                                                         0.623914      -0.005802
                                                         3.425251       0.005451

                          1       4    3px               0.065428       0.053063
                                                         0.168855      -0.030502
                                                         0.623914       0.062721
                                                         3.425251       0.019012
                          1       4    3py               0.065428       0.053063
                                                         0.168855      -0.030502
                                                         0.623914       0.062721
                                                         3.425251       0.019012
                          1       4    3pz               0.065428       0.053063
                                                         0.168855      -0.030502
                                                         0.623914       0.062721
                                                         3.425251       0.019012

     RI Auxiliary Basis Set             RI_aug-SZV-MOLOPT-ae-SR_N_RI_035_s_p_d_f

       Number of orbital shell sets:                                          15
       Number of orbital shells:                                              15
       Number of primitive Cartesian functions:                               15
       Number of Cartesian basis functions:                                   37
       Number of spherical basis functions:                                   35
       Norm type:                                                              2

       Normalised Cartesian orbitals:

                        Set   Shell   Orbital            Exponent    Coefficient

                          1       1    1s                0.236911       0.242019

                          2       1    8px               0.347892       0.380843
                          2       1    8py               0.347892       0.380843
                          2       1    8pz               0.347892       0.380843

                          3       1    2s                0.423897       0.374417

                          4       1    9px               0.493166       0.589089
                          4       1    9py               0.493166       0.589089
                          4       1    9pz               0.493166       0.589089

                          5       1   14dx2              0.625366       0.723843
                          5       1   14dxy              0.625366       1.253733
                          5       1   14dxz              0.625366       1.253733
                          5       1   14dy2              0.625366       0.723843
                          5       1   14dyz              0.625366       1.253733
                          5       1   14dz2              0.625366       0.723843

                          6       1   10px               0.699103       0.911206
                          6       1   10py               0.699103       0.911206
                          6       1   10pz               0.699103       0.911206

                          7       1    3s                0.758464       0.579244

                          8       1   11px               0.991036       1.409457
                          8       1   11py               0.991036       1.409457
                          8       1   11pz               0.991036       1.409457

                          9       1   15dx2              1.286053       2.556305
                          9       1   15dxy              1.286053       4.427650
                          9       1   15dxz              1.286053       4.427650
                          9       1   15dy2              1.286053       2.556305
                          9       1   15dyz              1.286053       4.427650
                          9       1   15dz2              1.286053       2.556305

                         10       1    4s                1.357095       0.896123

                         11       1   12px               1.404875       2.180155
                         11       1   12py               1.404875       2.180155
                         11       1   12pz               1.404875       2.180155

                         12       1   13px               1.991527       3.372273
                         12       1   13py               1.991527       3.372273
                         12       1   13pz               1.991527       3.372273

                         13       1    5s                2.428204       1.386354

                         14       1    6s                4.344704       2.144768

                         15       1    7s                7.773833       3.318077

       Atomic covalent radius [Angstrom]:                                  0.320

       Atomic van der Waals radius [Angstrom]:                             1.090

     AE Potential information for                                            ALL

       Description:                                       All-electron potential
                                          Krack, Parrinello, PCCP 2, 2105 (2000)

       Gaussian exponent of the core charge distribution:              12.500000
       Electronic configuration (s p d ...):                           1   0   0


 MOLECULE KIND INFORMATION


 All atoms are their own molecule, skipping detailed information


 TOTAL NUMBERS AND MAXIMUM NUMBERS

  Total number of            - Atomic kinds:                                   2
                             - Atoms:                                          2
                             - Shell sets:                                     3
                             - Shells:                                        10
                             - Primitive Cartesian functions:                 11
                             - Cartesian basis functions:                     21
                             - Spherical basis functions:                     20

  Maximum angular momentum of the orbital basis functions:                     2


 MODULE QUICKSTEP: ATOMIC COORDINATES IN ANGSTROM

   Atom Kind Element         X             Y             Z       Z(eff)     Mass
      1    1 N     7     15.518596     15.000000     15.000000   7.0000  14.0067
      2    2 H     1     14.481404     15.000000     15.000000   1.0000   1.0079



 SCF PARAMETERS         Density guess:                                    ATOMIC
                        --------------------------------------------------------
                        max_scf:                                             500
                        max_scf_history:                                       0
                        max_diis:                                              4
                        --------------------------------------------------------
                        eps_scf:                                        1.00E-06
                        eps_scf_history:                                0.00E+00
                        eps_diis:                                       1.00E-01
                        eps_eigval:                                     1.00E-05
                        --------------------------------------------------------
                        level_shift [a.u.]:                             0.000000
                        added MOs                                        16    0
                        --------------------------------------------------------
                        Mixing method:                            BROYDEN_MIXING
                                                charge density mixing in g-space
                        --------------------------------------------------------
                        No outer SCF

 PW_GRID| Information for grid number                                          1
 PW_GRID| Grid distributed over                                    24 processors
 PW_GRID| Real space group dimensions                                    24    1
 PW_GRID| the grid is blocked:                                                NO
 PW_GRID| Cutoff [a.u.]                                                    250.0
 PW_GRID| spherical cutoff:                                                   NO
 PW_GRID|   Bounds   1           -202     202                Points:         405
 PW_GRID|   Bounds   2           -202     202                Points:         405
 PW_GRID|   Bounds   3           -202     202                Points:         405
 PW_GRID| Volume element (a.u.^3)  0.2743E-02     Volume (a.u.^3)    182205.0337
 PW_GRID| Grid span                                                    FULLSPACE
 PW_GRID|   Distribution                         Average         Max         Min
 PW_GRID|   G-Vectors                          2767921.9     2768175     2767770
 PW_GRID|   G-Rays                                6834.4        6835        6834
 PW_GRID|   Real Space Points                  2767921.9     2788425     2624400

 PW_GRID| Information for grid number                                          2
 PW_GRID| Number of the reference grid                                         1
 PW_GRID| Grid distributed over                                    24 processors
 PW_GRID| Real space group dimensions                                    24    1
 PW_GRID| the grid is blocked:                                                NO
 PW_GRID| Cutoff [a.u.]                                                     83.3
 PW_GRID| spherical cutoff:                                                   NO
 PW_GRID|   Bounds   1           -120     119                Points:         240
 PW_GRID|   Bounds   2           -120     119                Points:         240
 PW_GRID|   Bounds   3           -120     119                Points:         240
 PW_GRID| Volume element (a.u.^3)  0.1318E-01     Volume (a.u.^3)    182205.0337
 PW_GRID| Grid span                                                    FULLSPACE
 PW_GRID|   Distribution                         Average         Max         Min
 PW_GRID|   G-Vectors                           576000.0      576240      575760
 PW_GRID|   G-Rays                                2400.0        2401        2399
 PW_GRID|   Real Space Points                   576000.0      576000      576000

 PW_GRID| Information for grid number                                          3
 PW_GRID| Number of the reference grid                                         1
 PW_GRID| Grid distributed over                                    24 processors
 PW_GRID| Real space group dimensions                                    24    1
 PW_GRID| the grid is blocked:                                                NO
 PW_GRID| Cutoff [a.u.]                                                     27.8
 PW_GRID| spherical cutoff:                                                   NO
 PW_GRID|   Bounds   1            -67      67                Points:         135
 PW_GRID|   Bounds   2            -67      67                Points:         135
 PW_GRID|   Bounds   3            -67      67                Points:         135
 PW_GRID| Volume element (a.u.^3)  0.7406E-01     Volume (a.u.^3)    182205.0337
 PW_GRID| Grid span                                                    FULLSPACE
 PW_GRID|   Distribution                         Average         Max         Min
 PW_GRID|   G-Vectors                           102515.6      102735      102330
 PW_GRID|   G-Rays                                 759.4         761         758
 PW_GRID|   Real Space Points                   102515.6      109350       91125

 PW_GRID| Information for grid number                                          4
 PW_GRID| Number of the reference grid                                         1
 PW_GRID| Grid distributed over                                    24 processors
 PW_GRID| Real space group dimensions                                    24    1
 PW_GRID| the grid is blocked:                                                NO
 PW_GRID| Cutoff [a.u.]                                                      9.3
 PW_GRID| spherical cutoff:                                                   NO
 PW_GRID|   Bounds   1            -40      39                Points:          80
 PW_GRID|   Bounds   2            -40      39                Points:          80
 PW_GRID|   Bounds   3            -40      39                Points:          80
 PW_GRID| Volume element (a.u.^3)  0.3559         Volume (a.u.^3)    182205.0337
 PW_GRID| Grid span                                                    FULLSPACE
 PW_GRID|   Distribution                         Average         Max         Min
 PW_GRID|   G-Vectors                            21333.3       21360       21280
 PW_GRID|   G-Rays                                 266.7         267         266
 PW_GRID|   Real Space Points                    21333.3       25600       19200

 POISSON| Solver                                                         WAVELET
 POISSON| Wavelet| Scaling function                                           40
 POISSON| Periodicity                                                       NONE

 RS_GRID| Information for grid number                                          1
 RS_GRID|   Bounds   1           -202     202                Points:         405
 RS_GRID|   Bounds   2           -202     202                Points:         405
 RS_GRID|   Bounds   3           -202     202                Points:         405
 RS_GRID| Real space distribution over                                  4 groups
 RS_GRID| Real space distribution along direction                              2
 RS_GRID| Border size                                                         34
 RS_GRID| Real space distribution over                                  6 groups
 RS_GRID| Real space distribution along direction                              3
 RS_GRID| Border size                                                         34
 RS_GRID|   Distribution                         Average         Max         Min
 RS_GRID|   Planes                                 169.2         170         169
 RS_GRID|   Distribution                         Average         Max         Min
 RS_GRID|   Planes                                 135.5         136         135

 RS_GRID| Information for grid number                                          2
 RS_GRID|   Bounds   1           -120     119                Points:         240
 RS_GRID|   Bounds   2           -120     119                Points:         240
 RS_GRID|   Bounds   3           -120     119                Points:         240
 RS_GRID| Real space distribution over                                  4 groups
 RS_GRID| Real space distribution along direction                              2
 RS_GRID| Border size                                                         37
 RS_GRID| Real space distribution over                                  6 groups
 RS_GRID| Real space distribution along direction                              3
 RS_GRID| Border size                                                         37
 RS_GRID|   Distribution                         Average         Max         Min
 RS_GRID|   Planes                                 134.0         134         134
 RS_GRID|   Distribution                         Average         Max         Min
 RS_GRID|   Planes                                 114.0         114         114

 RS_GRID| Information for grid number                                          3
 RS_GRID|   Bounds   1            -67      67                Points:         135
 RS_GRID|   Bounds   2            -67      67                Points:         135
 RS_GRID|   Bounds   3            -67      67                Points:         135
 RS_GRID| Real space fully replicated
 RS_GRID| Group size                                                           1

 RS_GRID| Information for grid number                                          4
 RS_GRID|   Bounds   1            -40      39                Points:          80
 RS_GRID|   Bounds   2            -40      39                Points:          80
 RS_GRID|   Bounds   3            -40      39                Points:          80
 RS_GRID| Real space fully replicated
 RS_GRID| Group size                                                           1

  HFX_INFO| Replica ID:                                                        1
  HFX_INFO| FRACTION:                                               0.2500000000
  HFX_INFO| Interaction Potential:                                       COULOMB
  HFX_INFO| EPS_SCHWARZ:                                                 1.0E-10
  HFX_INFO| EPS_SCHWARZ_FORCES                                           1.0E-08
  HFX_INFO| EPS_STORAGE_SCALING:                                         1.0E+00
  HFX_INFO| NBINS:                                                            64
  HFX_INFO| BLOCK_SIZE:                                                        1
  HFX_INFO| Number of periodic shells considered:                           NONE
  HFX_INFO| Number of periodic cells considered:                            NONE

 
 RI-RPA| using GPW style
 

 OVERLAP MATRIX CONDITION NUMBER
 1-Norm Condition Number (Estimate)
   CN : |A|*|A^-1|:  4.207E+000 *  1.116E+002   = 4.694E+002  Log(1-CN):  2.6715
 1-Norm and 2-Norm Condition Numbers using Diagonalization
   CN : |A|*|A^-1|:  4.207E+000 *  1.116E+002   = 4.694E+002  Log(1-CN):  2.6715
   CN : max/min ev:  2.973E+000 /  1.372E-002   = 2.168E+002  Log(2-CN):  2.3360

 Number of electrons:                                                          8
 Number of occupied orbitals:                                                  4
 Number of molecular orbitals:                                                20

 Number of orbital functions:                                                 20
 Number of independent orbital functions:                                     20

 Extrapolation method: initial_guess

 Atomic guess: The first density matrix is obtained in terms of atomic orbitals
               and electronic configurations assigned to each atomic kind

 Guess for atomic kind: N

 Electronic structure
    Total number of core electrons                                          0.00
    Total number of valence electrons                                       7.00
    Total number of electrons                                               7.00
    Multiplicity                                                   not specified
    S      2.00  2.00
    P      3.00


 *******************************************************************************
                  Iteration          Convergence                     Energy [au]
 *******************************************************************************
                          1        0.159909                     -53.340877683251
                          2        0.769146E-01                 -53.353877926770
                          3        0.463278E-03                 -53.358451509292
                          4        0.156014E-03                 -53.358451645833
                          5        0.102251E-04                 -53.358451658533
                          6        0.178265E-08                 -53.358451658590

 Energy components [Hartree]           Total Energy ::          -53.358451658590
                                        Band Energy ::          -29.695765597812
                                     Kinetic Energy ::           52.385975587247
                                   Potential Energy ::         -105.744427245837
                                      Virial (-V/T) ::            2.018563672060
                                        Core Energy ::          -72.851122194822
                                          XC Energy ::           -6.109149652554
                                     Coulomb Energy ::           25.601820188786

 Orbital energies  State     L     Occupation   Energy[a.u.]          Energy[eV]

                       1     0          2.000     -13.845221         -376.747634
                       2     0          2.000      -0.658428          -17.916731

                       1     1          3.000      -0.229489           -6.244716


 Total Electron Density at R=0:                                       126.344533

 Guess for atomic kind: H

 Electronic structure
    Total number of core electrons                                          0.00
    Total number of valence electrons                                       1.00
    Total number of electrons                                               1.00
    Multiplicity                                                   not specified
    S      1.00


 *******************************************************************************
                  Iteration          Convergence                     Energy [au]
 *******************************************************************************
                          1        0.105001E-01                  -0.442912571909
                          2        0.809393E-03                  -0.443000038014
                          3        0.126045E-03                  -0.443002205783
                          4        0.926691E-07                  -0.443002227638

 Energy components [Hartree]           Total Energy ::           -0.443002227638
                                        Band Energy ::           -0.231242105371
                                     Kinetic Energy ::            0.416655567325
                                   Potential Energy ::           -0.859657794963
                                      Virial (-V/T) ::            2.063233669195
                                        Core Energy ::           -0.493343888102
                                          XC Energy ::           -0.231659799565
                                     Coulomb Energy ::            0.282001460029

 Orbital energies  State     L     Occupation   Energy[a.u.]          Energy[eV]

                       1     0          1.000      -0.231242           -6.292418


 Total Electron Density at R=0:                                         0.184980
 Re-scaling the density matrix to get the right number of electrons
                  # Electrons              Trace(P)               Scaling factor
                            8                 8.000                        1.000


 SCF WAVEFUNCTION OPTIMIZATION

  Step     Update method      Time    Convergence         Total energy    Change
  ------------------------------------------------------------------------------

  HFX_MEM_INFO| Est. max. program size before HFX [MiB]:                    2197
  HFX_MEM_INFO| Number of cart. primitive ERI's calculated:              5879217
  HFX_MEM_INFO| Number of sph. ERI's calculated:                           73312
  HFX_MEM_INFO| Number of sph. ERI's stored in-core:                       73312
  HFX_MEM_INFO| Number of sph. ERI's stored on disk:                           0
  HFX_MEM_INFO| Number of sph. ERI's calculated on the fly:                    0
  HFX_MEM_INFO| Total memory consumption ERI's RAM [MiB]:                      1
  HFX_MEM_INFO| Whereof max-vals [MiB]:                                        1
  HFX_MEM_INFO| Total compression factor ERI's RAM:                         0.57
  HFX_MEM_INFO| Total memory consumption ERI's disk [MiB]:                     0
  HFX_MEM_INFO| Total compression factor ERI's disk:                        0.00
  HFX_MEM_INFO| Size of density/Fock matrix [MiB]:                             0
  HFX_MEM_INFO| Size of buffers [MiB]:                                         0
  HFX_MEM_INFO| Est. max. program size after HFX  [MiB]:                    2706

     1 NoMix/Diag. 0.10E+00    6.2     0.94794648       -54.3549978085 -5.44E+01
     2 Broy./Diag. 0.10E+00    4.8     0.06088563       -53.9753469839  3.80E-01
     3 Broy./Diag. 0.10E+00    5.0     0.04747581       -53.9711080431  4.24E-03
     4 Broy./Diag. 0.10E+00    5.3     0.06612576       -54.2580321919 -2.87E-01
     5 Broy./Diag. 0.10E+00    5.2     0.01773389       -54.4639872133 -2.06E-01
     6 Broy./Diag. 0.10E+00    5.3     0.01632898       -54.4616725210  2.31E-03
     7 Broy./Diag. 0.10E+00    5.2     0.01613120       -54.3965558740  6.51E-02
     8 Broy./Diag. 0.10E+00    5.3     0.00274111       -54.3637945490  3.28E-02
     9 Broy./Diag. 0.10E+00    5.5     0.02078548       -54.4076092291 -4.38E-02
    10 Broy./Diag. 0.10E+00    5.5     0.00591106       -54.4631220949 -5.55E-02
    11 Broy./Diag. 0.10E+00    5.4     0.00517496       -54.4609700911  2.15E-03
    12 Broy./Diag. 0.10E+00    5.5     0.00949370       -54.4231107076  3.79E-02
    13 Broy./Diag. 0.10E+00    5.6     0.00237245       -54.3988322846  2.43E-02
    14 Broy./Diag. 0.10E+00    5.6     0.00750451       -54.4117973802 -1.30E-02
    15 Broy./Diag. 0.10E+00    5.5     0.00453552       -54.4358638790 -2.41E-02
    16 Broy./Diag. 0.10E+00    5.5     0.00109691       -54.4451273288 -9.26E-03
    17 Broy./Diag. 0.10E+00    5.6     0.00256679       -54.4409116737  4.22E-03
    18 Broy./Diag. 0.10E+00    5.4     0.00100718       -54.4348257234  6.09E-03
    19 Broy./Diag. 0.10E+00    5.4     0.00018635       -54.4324748573  2.35E-03
    20 Broy./Diag. 0.10E+00    5.5     0.00092658       -54.4317068311  7.68E-04
    21 Broy./Diag. 0.10E+00    5.7     0.00052180       -54.4305963642  1.11E-03
    22 Broy./Diag. 0.10E+00    5.7     0.00010553       -54.4296604558  9.36E-04
    23 Broy./Diag. 0.10E+00    5.6     0.00020038       -54.4292189367  4.42E-04
    24 Broy./Diag. 0.10E+00    5.5     0.00019898       -54.4293737585 -1.55E-04
    25 Broy./Diag. 0.10E+00    5.6     0.00047541       -54.4306001092 -1.23E-03
    26 Broy./Diag. 0.10E+00    5.5     0.00054059       -54.4312009349 -6.01E-04
    27 Broy./Diag. 0.10E+00    5.6     0.00031028       -54.4309068298  2.94E-04
    28 Broy./Diag. 0.10E+00    5.6     0.00018026       -54.4308817252  2.51E-05
    29 Broy./Diag. 0.10E+00    5.6     0.00009131       -54.4308032040  7.85E-05
    30 Broy./Diag. 0.10E+00    5.5     0.00005849       -54.4305070092  2.96E-04
    31 Broy./Diag. 0.10E+00    5.5     0.00010132       -54.4304535908  5.34E-05
    32 Broy./Diag. 0.10E+00    5.4     0.00002154       -54.4304638634 -1.03E-05
    33 Broy./Diag. 0.10E+00    5.5     0.00002945       -54.4303534133  1.10E-04
    34 Broy./Diag. 0.10E+00    5.4     0.00002929       -54.4303110000  4.24E-05
    35 Broy./Diag. 0.10E+00    5.7     0.00000767       -54.4303403533 -2.94E-05
    36 Broy./Diag. 0.10E+00    5.6     0.00001859       -54.4303648428 -2.45E-05
    37 Broy./Diag. 0.10E+00    5.6     0.00001627       -54.4304340218 -6.92E-05
    38 Broy./Diag. 0.10E+00    5.5     0.00002512       -54.4304315472  2.47E-06
    39 Broy./Diag. 0.10E+00    5.5     0.00003832       -54.4303808529  5.07E-05
    40 Broy./Diag. 0.10E+00    5.5     0.00007915       -54.4303402078  4.06E-05
    41 Broy./Diag. 0.10E+00    5.7     0.00010653       -54.4303710572 -3.08E-05
    42 Broy./Diag. 0.10E+00    5.6     0.00016765       -54.4304043413 -3.33E-05
    43 Broy./Diag. 0.10E+00    5.6     0.00029088       -54.4303858521  1.85E-05
    44 Broy./Diag. 0.10E+00    5.6     0.00050623       -54.4303748806  1.10E-05
    45 Broy./Diag. 0.10E+00    5.5     0.00088627       -54.4303804608 -5.58E-06
    46 Broy./Diag. 0.10E+00    5.4     0.00155108       -54.4303868976 -6.44E-06
    47 Broy./Diag. 0.10E+00    5.5     0.00271282       -54.4304047220 -1.78E-05
    48 Broy./Diag. 0.10E+00    5.4     0.00475447       -54.4304141379 -9.42E-06
    49 Broy./Diag. 0.10E+00    5.6     0.00834227       -54.4304216792 -7.54E-06
    50 Broy./Diag. 0.10E+00    5.7     0.01458421       -54.4304530314 -3.14E-05
    51 Broy./Diag. 0.10E+00    5.7     0.02545533       -54.4305200495 -6.70E-05
    52 Broy./Diag. 0.10E+00    5.6     0.04418716       -54.4303567091  1.63E-04
    53 Broy./Diag. 0.10E+00    5.4     0.07574296       -54.4299288727  4.28E-04
    54 Broy./Diag. 0.10E+00    5.5     0.12532800       -54.4292034842  7.25E-04
    55 Broy./Diag. 0.10E+00    5.5     0.18877322       -54.4272502915  1.95E-03
    56 Broy./Diag. 0.10E+00    5.4     0.22660203       -54.4217973746  5.45E-03
    57 Broy./Diag. 0.10E+00    5.5     0.35333043       -54.4087159162  1.31E-02
    58 Broy./Diag. 0.10E+00    5.7     0.39018881       -54.3850385608  2.37E-02
    59 Broy./Diag. 0.10E+00    5.6     0.31228647       -54.3568495838  2.82E-02
    60 Broy./Diag. 0.10E+00    5.5     0.19965563       -54.3325528421  2.43E-02
    61 Broy./Diag. 0.10E+00    5.5     0.15317484       -54.3157677592  1.68E-02
    62 Broy./Diag. 0.10E+00    5.5     0.12374222       -54.3061482588  9.62E-03
    63 Broy./Diag. 0.10E+00    5.5     0.09295098       -54.3008781461  5.27E-03
    64 Broy./Diag. 0.10E+00    5.8     0.06750974       -54.2980247080  2.85E-03
    65 Broy./Diag. 0.10E+00    5.7     0.04864526       -54.2964368408  1.59E-03
    66 Broy./Diag. 0.10E+00    5.7     0.03760634       -54.2965245565 -8.77E-05
    67 Broy./Diag. 0.10E+00    5.5     0.03611070       -54.2951165790  1.41E-03
    68 Broy./Diag. 0.10E+00    5.5     0.03998395       -54.2956960252 -5.79E-04
    69 Broy./Diag. 0.10E+00    5.4     0.06919651       -54.3460219462 -5.03E-02
    70 Broy./Diag. 0.10E+00    5.4     0.13751175       -54.4640415254 -1.18E-01
    71 Broy./Diag. 0.10E+00    5.4     0.19154254       -54.5971320326 -1.33E-01
    72 Broy./Diag. 0.10E+00    5.4     0.19152787       -54.6176786591 -2.05E-02
    73 Broy./Diag. 0.10E+00    5.4     0.19682479       -54.6021057165  1.56E-02
    74 Broy./Diag. 0.10E+00    5.4     0.06232342       -54.5574321420  4.47E-02
    75 Broy./Diag. 0.10E+00    5.4     0.02726829       -54.5055782900  5.19E-02
    76 Broy./Diag. 0.10E+00    5.7     0.35514209       -54.5717331539 -6.62E-02
    77 Broy./Diag. 0.10E+00    5.5     0.13381127       -54.6474022308 -7.57E-02
    78 Broy./Diag. 0.10E+00    5.6     0.24151309       -54.5800857021  6.73E-02
    79 Broy./Diag. 0.10E+00    5.6     0.02879443       -54.4557471462  1.24E-01
    80 Broy./Diag. 0.10E+00    5.6     0.09102549       -54.3290837951  1.27E-01
    81 Broy./Diag. 0.10E+00    5.6     0.29477478       -54.2226826032  1.06E-01
    82 Broy./Diag. 0.10E+00    5.7     0.43984611       -54.1666049363  5.61E-02
    83 Broy./Diag. 0.10E+00    5.6     0.19210767       -54.3026432226 -1.36E-01
    84 Broy./Diag. 0.10E+00    5.5     0.03366906       -54.4010932919 -9.85E-02
    85 Broy./Diag. 0.10E+00    5.4     0.01739181       -54.5184228465 -1.17E-01
    86 Broy./Diag. 0.10E+00    5.5     0.07030248       -54.5596121790 -4.12E-02
    87 Broy./Diag. 0.10E+00    5.4     0.09744845       -54.5952392079 -3.56E-02
    88 Broy./Diag. 0.10E+00    5.4     0.37499787       -54.5480840438  4.72E-02
    89 Broy./Diag. 0.10E+00    5.4     0.42872046       -54.5035732218  4.45E-02
    90 Broy./Diag. 0.10E+00    5.6     0.13758770       -54.4796979360  2.39E-02
    91 Broy./Diag. 0.10E+00    5.7     0.05137386       -54.4656479605  1.40E-02
    92 Broy./Diag. 0.10E+00    5.6     0.12901139       -54.4850763636 -1.94E-02
    93 Broy./Diag. 0.10E+00    5.6     0.14749303       -54.4996355614 -1.46E-02
    94 Broy./Diag. 0.10E+00    5.4     0.23717503       -54.5043846978 -4.75E-03
    95 Broy./Diag. 0.10E+00    5.4     0.25301607       -54.5143859369 -1.00E-02
    96 Broy./Diag. 0.10E+00    5.5     0.19754210       -54.5567557621 -4.24E-02
    97 Broy./Diag. 0.10E+00    5.7     0.18767372       -54.6061720496 -4.94E-02
    98 Broy./Diag. 0.10E+00    5.7     0.05042653       -54.5960253764  1.01E-02
    99 Broy./Diag. 0.10E+00    5.6     0.09576959       -54.5602814411  3.57E-02
   100 Broy./Diag. 0.10E+00    5.5     0.15541789       -54.5818405241 -2.16E-02
   101 Broy./Diag. 0.10E+00    5.7     0.25094437       -54.6127919930 -3.10E-02
   102 Broy./Diag. 0.10E+00    5.4     0.37522629       -54.6142980140 -1.51E-03
   103 Broy./Diag. 0.10E+00    5.4     0.34211733       -54.5985502354  1.57E-02
   104 Broy./Diag. 0.10E+00    5.4     0.21118097       -54.5686279856  2.99E-02
   105 Broy./Diag. 0.10E+00    5.6     0.09348153       -54.5218018132  4.68E-02
   106 Broy./Diag. 0.10E+00    5.5     0.04760470       -54.4762571891  4.55E-02
   107 Broy./Diag. 0.10E+00    5.6     0.05444029       -54.4520930031  2.42E-02
   108 Broy./Diag. 0.10E+00    5.4     0.11391711       -54.4346776672  1.74E-02
   109 Broy./Diag. 0.10E+00    5.5     0.13376774       -54.4069900147  2.77E-02
   110 Broy./Diag. 0.10E+00    5.4     0.13549663       -54.3822181722  2.48E-02
   111 Broy./Diag. 0.10E+00    5.6     0.12309981       -54.3593789348  2.28E-02
   112 Broy./Diag. 0.10E+00    5.8     0.08424447       -54.3420271746  1.74E-02
   113 Broy./Diag. 0.10E+00    5.6     0.09091088       -54.3943259718 -5.23E-02
   114 Broy./Diag. 0.10E+00    5.6     0.12098595       -54.4437331129 -4.94E-02
   115 Broy./Diag. 0.10E+00    5.5     0.18102232       -54.4594599384 -1.57E-02
   116 Broy./Diag. 0.10E+00    5.4     0.23290524       -54.4604039330 -9.44E-04
   117 Broy./Diag. 0.10E+00    5.5     0.27826975       -54.4622403945 -1.84E-03
   118 Broy./Diag. 0.10E+00    5.4     0.31003658       -54.4422792904  2.00E-02
   119 Broy./Diag. 0.10E+00    5.4     0.30073959       -54.4068567788  3.54E-02
   120 Broy./Diag. 0.10E+00    5.3     0.25788330       -54.3624285612  4.44E-02
   121 Broy./Diag. 0.10E+00    5.4     0.18013990       -54.3290012085  3.34E-02
   122 Broy./Diag. 0.10E+00    5.4     0.14033990       -54.3128640317  1.61E-02
   123 Broy./Diag. 0.10E+00    5.7     0.12160810       -54.3150683983 -2.20E-03
   124 Broy./Diag. 0.10E+00    5.5     0.10018479       -54.3188625506 -3.79E-03
   125 Broy./Diag. 0.10E+00    5.5     0.08865746       -54.3185484342  3.14E-04
   126 Broy./Diag. 0.10E+00    5.7     0.06129342       -54.3617620146 -4.32E-02
   127 Broy./Diag. 0.10E+00    5.7     0.03888430       -54.4905705422 -1.29E-01
   128 Broy./Diag. 0.10E+00    5.7     0.05592549       -54.5917336337 -1.01E-01
   129 Broy./Diag. 0.10E+00    5.5     0.05420323       -54.6651996824 -7.35E-02
   130 Broy./Diag. 0.10E+00    5.5     0.09989213       -54.6378874815  2.73E-02
   131 Broy./Diag. 0.10E+00    5.5     0.10512021       -54.5158036188  1.22E-01
   132 Broy./Diag. 0.10E+00    5.4     0.10990872       -54.4290903334  8.67E-02
   133 Broy./Diag. 0.10E+00    5.4     0.18963489       -54.3930161678  3.61E-02
   134 Broy./Diag. 0.10E+00    5.5     0.31324083       -54.3861811248  6.84E-03
   135 Broy./Diag. 0.10E+00    5.4     0.36946209       -54.3847911401  1.39E-03
   136 Broy./Diag. 0.10E+00    5.3     0.28765889       -54.3731974596  1.16E-02
   137 Broy./Diag. 0.10E+00    5.6     0.21575711       -54.3554891668  1.77E-02
   138 Broy./Diag. 0.10E+00    5.7     0.20018995       -54.3080122641  4.75E-02
   139 Broy./Diag. 0.10E+00    5.6     0.19946242       -54.2758730801  3.21E-02
   140 Broy./Diag. 0.10E+00    5.7     0.15519567       -54.2722428284  3.63E-03
   141 Broy./Diag. 0.10E+00    5.7     0.13328333       -54.2792199378 -6.98E-03
   142 Broy./Diag. 0.10E+00    5.7     0.10603656       -54.2748139723  4.41E-03
   143 Broy./Diag. 0.10E+00    5.7     0.08271148       -54.2591927526  1.56E-02
   144 Broy./Diag. 0.10E+00    5.6     0.08002198       -54.2936174923 -3.44E-02
   145 Broy./Diag. 0.10E+00    5.5     0.14719495       -54.3530417722 -5.94E-02
   146 Broy./Diag. 0.10E+00    5.5     0.16817119       -54.3711502811 -1.81E-02
   147 Broy./Diag. 0.10E+00    5.4     0.15550488       -54.4472378054 -7.61E-02
   148 Broy./Diag. 0.10E+00    5.4     0.24185289       -54.4671994265 -2.00E-02
   149 Broy./Diag. 0.10E+00    5.4     0.31469355       -54.4671695289  2.99E-05
   150 Broy./Diag. 0.10E+00    5.4     0.29840407       -54.4664105247  7.59E-04
   151 Broy./Diag. 0.10E+00    5.3     0.21620524       -54.4634177806  2.99E-03
   152 Broy./Diag. 0.10E+00    5.3     0.07745134       -54.4775489028 -1.41E-02
   153 Broy./Diag. 0.10E+00    5.4     0.20662688       -54.5075032289 -3.00E-02
   154 Broy./Diag. 0.10E+00    5.6     0.21531600       -54.5363817271 -2.89E-02
   155 Broy./Diag. 0.10E+00    5.8     0.21674480       -54.5371053550 -7.24E-04
   156 Broy./Diag. 0.10E+00    5.7     0.18042190       -54.5329883897  4.12E-03
   157 Broy./Diag. 0.10E+00    5.7     0.10738703       -54.5417659430 -8.78E-03
   158 Broy./Diag. 0.10E+00    5.5     0.08261675       -54.5755788757 -3.38E-02
   159 Broy./Diag. 0.10E+00    5.5     0.07791013       -54.6022790427 -2.67E-02
   160 Broy./Diag. 0.10E+00    5.5     0.01413852       -54.5629482460  3.93E-02
   161 Broy./Diag. 0.10E+00    5.5     0.12347372       -54.4988234526  6.41E-02
   162 Broy./Diag. 0.10E+00    5.4     0.25626760       -54.4552522637  4.36E-02
   163 Broy./Diag. 0.10E+00    5.4     0.39014892       -54.4372953887  1.80E-02
   164 Broy./Diag. 0.10E+00    5.4     0.34937827       -54.4479004334 -1.06E-02
   165 Broy./Diag. 0.10E+00    5.3     0.19219443       -54.4563844186 -8.48E-03
   166 Broy./Diag. 0.10E+00    5.3     0.10899091       -54.4582898975 -1.91E-03
   167 Broy./Diag. 0.10E+00    5.4     0.05399996       -54.4481796597  1.01E-02
   168 Broy./Diag. 0.10E+00    5.6     0.04960666       -54.4931104410 -4.49E-02
   169 Broy./Diag. 0.10E+00    5.7     0.03580786       -54.5805401136 -8.74E-02
   170 Broy./Diag. 0.10E+00    5.8     0.03115485       -54.6033747208 -2.28E-02
   171 Broy./Diag. 0.10E+00    5.6     0.08217471       -54.6095022266 -6.13E-03
   172 Broy./Diag. 0.10E+00    5.7     0.21132434       -54.6200745102 -1.06E-02
   173 Broy./Diag. 0.10E+00    5.5     0.39938360       -54.6397979789 -1.97E-02
   174 Broy./Diag. 0.10E+00    5.5     0.28202198       -54.6820666882 -4.23E-02
   175 Broy./Diag. 0.10E+00    5.5     0.01711161       -54.6399042706  4.22E-02
   176 Broy./Diag. 0.10E+00    5.4     0.03668288       -54.6128844329  2.70E-02
   177 Broy./Diag. 0.10E+00    5.5     0.03659394       -54.6131529103 -2.68E-04
   178 Broy./Diag. 0.10E+00    5.4     0.06476072       -54.5845447193  2.86E-02
   179 Broy./Diag. 0.10E+00    5.4     0.31822800       -54.5240412606  6.05E-02
   180 Broy./Diag. 0.10E+00    5.4     0.36550719       -54.5551920414 -3.12E-02
   181 Broy./Diag. 0.10E+00    5.3     0.26668117       -54.5697071803 -1.45E-02
   182 Broy./Diag. 0.10E+00    5.4     0.11693507       -54.5628332123  6.87E-03
   183 Broy./Diag. 0.10E+00    5.6     0.00977175       -54.5350754777  2.78E-02
   184 Broy./Diag. 0.10E+00    5.6     0.05490848       -54.5138736156  2.12E-02
   185 Broy./Diag. 0.10E+00    5.7     0.08119862       -54.5125212253  1.35E-03
   186 Broy./Diag. 0.10E+00    5.7     0.22018979       -54.5246366708 -1.21E-02
   187 Broy./Diag. 0.10E+00    5.6     0.37232941       -54.5547052989 -3.01E-02
   188 Broy./Diag. 0.10E+00    5.5     0.35358090       -54.5565289300 -1.82E-03
   189 Broy./Diag. 0.10E+00    5.5     0.04819637       -54.5477147572  8.81E-03
   190 Broy./Diag. 0.10E+00    5.5     0.27119185       -54.5647714246 -1.71E-02
   191 Broy./Diag. 0.10E+00    5.4     0.43443097       -54.5816513828 -1.69E-02
   192 Broy./Diag. 0.10E+00    5.4     0.33351817       -54.5952717443 -1.36E-02
   193 Broy./Diag. 0.10E+00    5.4     0.33022108       -54.6060018473 -1.07E-02
   194 Broy./Diag. 0.10E+00    5.4     0.24151550       -54.5944360223  1.16E-02
   195 Broy./Diag. 0.10E+00    5.4     0.16608231       -54.5678683336  2.66E-02
   196 Broy./Diag. 0.10E+00    5.3     0.08468875       -54.5273638473  4.05E-02
   197 Broy./Diag. 0.10E+00    5.6     0.01796249       -54.4796458782  4.77E-02
   198 Broy./Diag. 0.10E+00    5.6     0.00843566       -54.4633937378  1.63E-02
   199 Broy./Diag. 0.10E+00    5.6     0.00997863       -54.4681853312 -4.79E-03
   200 Broy./Diag. 0.10E+00    5.7     0.02458383       -54.4743063689 -6.12E-03
   201 Broy./Diag. 0.10E+00    5.7     0.04503468       -54.4800381039 -5.73E-03
   202 Broy./Diag. 0.10E+00    5.6     0.07246023       -54.4894108518 -9.37E-03
   203 Broy./Diag. 0.10E+00    5.5     0.14168740       -54.4899853690 -5.75E-04
   204 Broy./Diag. 0.10E+00    5.5     0.25048903       -54.4836086235  6.38E-03
   205 Broy./Diag. 0.10E+00    5.5     0.32667948       -54.4764864348  7.12E-03
   206 Broy./Diag. 0.10E+00    5.5     0.26601600       -54.4688727196  7.61E-03
   207 Broy./Diag. 0.10E+00    5.4     0.23574078       -54.4531302269  1.57E-02
   208 Broy./Diag. 0.10E+00    5.4     0.21834451       -54.4376596714  1.55E-02
   209 Broy./Diag. 0.10E+00    5.4     0.23223396       -54.4194729705  1.82E-02
   210 Broy./Diag. 0.10E+00    5.3     0.24207144       -54.3795451726  3.99E-02
[...]
   418 Broy./Diag. 0.10E+00    5.5     0.10923443       -54.4243880285 -1.43E-02
   419 Broy./Diag. 0.10E+00    5.6     0.09314946       -54.4542247476 -2.98E-02
   420 Broy./Diag. 0.10E+00    5.6     0.09468076       -54.4708351547 -1.66E-02
   421 Broy./Diag. 0.10E+00    5.5     0.20748237       -54.4679254285  2.91E-03
   422 Broy./Diag. 0.10E+00    5.5     0.31619060       -54.4684030013 -4.78E-04
   423 Broy./Diag. 0.10E+00    5.4     0.30013764       -54.4872147408 -1.88E-02
   424 Broy./Diag. 0.10E+00    5.5     0.22848331       -54.4926590313 -5.44E-03
   425 Broy./Diag. 0.10E+00    5.7     0.12967555       -54.5024195099 -9.76E-03
   426 Broy./Diag. 0.10E+00    5.6     0.05775940       -54.5009473871  1.47E-03
   427 Broy./Diag. 0.10E+00    5.6     0.04326041       -54.5024119451 -1.46E-03
   428 Broy./Diag. 0.10E+00    5.5     0.07355715       -54.4890772226  1.33E-02
   429 Broy./Diag. 0.10E+00    5.5     0.16545518       -54.4343493852  5.47E-02
   430 Broy./Diag. 0.10E+00    5.5     0.12334754       -54.3729426652  6.14E-02
   431 Broy./Diag. 0.10E+00    5.4     0.18275313       -54.3284081612  4.45E-02
   432 Broy./Diag. 0.10E+00    5.4     0.17181277       -54.3582611378 -2.99E-02
   433 Broy./Diag. 0.10E+00    5.6     0.06546735       -54.4379452345 -7.97E-02
   434 Broy./Diag. 0.10E+00    5.6     0.02917418       -54.5041094572 -6.62E-02
   435 Broy./Diag. 0.10E+00    5.6     0.09301206       -54.4880599044  1.60E-02
   436 Broy./Diag. 0.10E+00    5.7     0.07957000       -54.4701013255  1.80E-02
   437 Broy./Diag. 0.10E+00    5.5     0.05780481       -54.4501165130  2.00E-02
   438 Broy./Diag. 0.10E+00    5.5     0.07309658       -54.4290835602  2.10E-02
   439 Broy./Diag. 0.10E+00    5.5     0.00465749       -54.4197237345  9.36E-03
   440 Broy./Diag. 0.10E+00    5.5     0.05091001       -54.4226702328 -2.95E-03
   441 Broy./Diag. 0.10E+00    5.5     0.06064133       -54.4295902054 -6.92E-03
   442 Broy./Diag. 0.10E+00    5.4     0.01382721       -54.4337250154 -4.13E-03
   443 Broy./Diag. 0.10E+00    5.3     0.01106369       -54.4359136787 -2.19E-03
   444 Broy./Diag. 0.10E+00    5.4     0.11618814       -54.4298238642  6.09E-03
   445 Broy./Diag. 0.10E+00    5.4     0.09902107       -54.4284993547  1.32E-03
   446 Broy./Diag. 0.10E+00    5.6     0.17000302       -54.4229260758  5.57E-03
   447 Broy./Diag. 0.10E+00    5.6     0.25010595       -54.4219248377  1.00E-03
   448 Broy./Diag. 0.10E+00    5.6     0.26444111       -54.4156412110  6.28E-03
   449 Broy./Diag. 0.10E+00    5.5     0.36301326       -54.3975746060  1.81E-02
   450 Broy./Diag. 0.10E+00    5.7     0.36662648       -54.3753950066  2.22E-02
   451 Broy./Diag. 0.10E+00    5.6     0.26101673       -54.3588889735  1.65E-02
   452 Broy./Diag. 0.10E+00    5.6     0.17889834       -54.3292228445  2.97E-02
   453 Broy./Diag. 0.10E+00    5.6     0.12487532       -54.3121569766  1.71E-02
   454 Broy./Diag. 0.10E+00    5.5     0.14249434       -54.3034259520  8.73E-03
   455 Broy./Diag. 0.10E+00    5.5     0.15107206       -54.3000277445  3.40E-03
   456 Broy./Diag. 0.10E+00    5.5     0.14566212       -54.3009471771 -9.19E-04
   457 Broy./Diag. 0.10E+00    5.6     0.14123661       -54.3049784636 -4.03E-03
   458 Broy./Diag. 0.10E+00    5.5     0.15825408       -54.3129581388 -7.98E-03
   459 Broy./Diag. 0.10E+00    5.6     0.18076897       -54.3265413883 -1.36E-02
   460 Broy./Diag. 0.10E+00    5.5     0.15773306       -54.4064211994 -7.99E-02
   461 Broy./Diag. 0.10E+00    5.5     0.11452380       -54.4417198914 -3.53E-02
   462 Broy./Diag. 0.10E+00    5.4     0.02890514       -54.6885240611 -2.47E-01
   463 Broy./Diag. 0.10E+00    5.4     0.05636427       -54.8667058373 -1.78E-01
   464 Broy./Diag. 0.10E+00    5.4     0.11524366       -54.8883622241 -2.17E-02
   465 Broy./Diag. 0.10E+00    5.4     0.37171320       -55.0361414231 -1.48E-01
   466 Broy./Diag. 0.10E+00    5.6     0.50249946       -55.1865759670 -1.50E-01
   467 Broy./Diag. 0.10E+00    5.6     0.21472490       -55.1412259131  4.54E-02
   468 Broy./Diag. 0.10E+00    5.5     0.04824161       -54.9007859850  2.40E-01
   469 Broy./Diag. 0.10E+00    5.5     0.01620578       -54.6399242995  2.61E-01
   470 Broy./Diag. 0.10E+00    5.5     0.04205219       -54.7124102515 -7.25E-02
   471 Broy./Diag. 0.10E+00    5.7     0.46922515       -54.8003891378 -8.80E-02
   472 Broy./Diag. 0.10E+00    5.7     0.38248706       -55.0210272719 -2.21E-01
   473 Broy./Diag. 0.10E+00    5.7     0.03174701       -55.0792978858 -5.83E-02
   474 Broy./Diag. 0.10E+00    5.5     0.34140644       -55.0107576986  6.85E-02
   475 Broy./Diag. 0.10E+00    5.5     0.23683189       -55.0125254881 -1.77E-03
   476 Broy./Diag. 0.10E+00    5.4     0.37090965       -54.8770158176  1.36E-01
   477 Broy./Diag. 0.10E+00    5.4     0.34076970       -54.8010051883  7.60E-02
   478 Broy./Diag. 0.10E+00    5.4     0.30507607       -54.5980745462  2.03E-01
   479 Broy./Diag. 0.10E+00    5.4     0.30257692       -54.5202159099  7.79E-02
   480 Broy./Diag. 0.10E+00    5.4     0.30381840       -54.4474396031  7.28E-02
   481 Broy./Diag. 0.10E+00    5.7     0.18509162       -54.4393393814  8.10E-03
   482 Broy./Diag. 0.10E+00    5.6     0.36766706       -54.4953790273 -5.60E-02
   483 Broy./Diag. 0.10E+00    5.6     0.37737723       -54.5344225135 -3.90E-02
   484 Broy./Diag. 0.10E+00    5.5     0.25508535       -54.5495509499 -1.51E-02
   485 Broy./Diag. 0.10E+00    5.5     0.22337366       -54.5407210592  8.83E-03
   486 Broy./Diag. 0.10E+00    5.6     0.19052738       -54.5177183965  2.30E-02
   487 Broy./Diag. 0.10E+00    5.7     0.18457387       -54.4977821979  1.99E-02
   488 Broy./Diag. 0.10E+00    5.7     0.20966623       -54.4584276653  3.94E-02
   489 Broy./Diag. 0.10E+00    5.5     0.19076887       -54.4571405056  1.29E-03
   490 Broy./Diag. 0.10E+00    5.5     0.15040619       -54.4618934055 -4.75E-03
   491 Broy./Diag. 0.10E+00    5.4     0.07556669       -54.4737076286 -1.18E-02
   492 Broy./Diag. 0.10E+00    5.4     0.21398629       -54.4548485689  1.89E-02
   493 Broy./Diag. 0.10E+00    5.5     0.23996390       -54.4935553457 -3.87E-02
   494 Broy./Diag. 0.10E+00    5.5     0.24647883       -54.5099672919 -1.64E-02
   495 Broy./Diag. 0.10E+00    5.4     0.18858924       -54.5068687459  3.10E-03
   496 Broy./Diag. 0.10E+00    5.4     0.05260485       -54.4856606716  2.12E-02
   497 Broy./Diag. 0.10E+00    5.7     0.03418932       -54.4363732359  4.93E-02
   498 Broy./Diag. 0.10E+00    5.5     0.20208398       -54.3253074047  1.11E-01
   499 Broy./Diag. 0.10E+00    5.5     0.34409341       -54.2310272839  9.43E-02
   500 Broy./Diag. 0.10E+00    5.5     0.35579146       -54.2187738723  1.23E-02

  Leaving inner SCF loop after reaching   500 steps.


  Electronic density on regular grids:         -6.1333829058        1.8666170942
  Core density on regular grids:                1.0000000000       -7.0000000000
  Hard and soft densities (Lebedev):          -10.2621489241       -8.3837818041
  Total Rho_soft + Rho1_hard - Rho1_soft       -8.0117500258
  Total charge density (r-space):              -7.0117500258
  Total Rho_soft + Rho0_soft (g-space):        -0.0117500392

  Overlap energy of the core charge distribution:               0.00000008866015
  Self energy of the core charge distribution:                -49.21005070205399
  Core Hamiltonian energy:                                     -6.65392304046176
  Hartree energy:                                              18.13841504360242
  Exchange-correlation energy:                                 -2.15911428993885
  Hartree-Fock Exchange energy:                                -1.70785249148586

  GAPW| Exc from hard and soft atomic rho1:                    -3.13841093751161
  GAPW| local Eh = 1 center integrals:                         -9.48783754309828

  Total energy:                                               -54.21877387228779

 *******************************************************************************
 *   ___                                                                       *
 *  /   \                                                                      *
 * [ABORT]                                                                     *
 *  \___/     SCF run NOT converged. To continue the calculation regardless,   *
 *    |             please set the keyword IGNORE_CONVERGENCE_FAILURE.         *
 *  O/|                                                                        *
 * /| |                                                                        *
 * / \                                                            qs_scf.F:611 *
 *******************************************************************************


 ===== Routine Calling Stack ===== 

            3 scf_env_do_scf
            2 qs_energies
            1 CP2K

 *******************************************************************************
 *   ___                                                                       *
 *  /   \                                                                      *
 * [ABORT]                                                                     *
 *  \___/     SCF run NOT converged. To continue the calculation regardless,   *
 *    |             please set the keyword IGNORE_CONVERGENCE_FAILURE.         *
 *  O/|                                                                        *
 * /| |                                                                        *
 * / \                                                            qs_scf.F:611 *
 *******************************************************************************


 ===== Routine Calling Stack ===== 

            3 scf_env_do_scf
            2 qs_energies
            1 CP2K

 *******************************************************************************
 *   ___                                                                       *
 *  /   \                                                                      *
 * [ABORT]                                                                     *
 *  \___/     SCF run NOT converged. To continue the calculation regardless,   *
 *    |             please set the keyword IGNORE_CONVERGENCE_FAILURE.         *
 *  O/|                                                                        *
 * /| |                                                                        *
 * / \                                                            qs_scf.F:611 *
 *******************************************************************************


 ===== Routine Calling Stack ===== 

            3 scf_env_do_scf
            2 qs_energies
            1 CP2K

 *******************************************************************************
 *   ___                                                                       *
 *  /   \                                                                      *
 * [ABORT]                                                                     *
 *  \___/     SCF run NOT converged. To continue the calculation regardless,   *
 *    |             please set the keyword IGNORE_CONVERGENCE_FAILURE.         *
 *  O/|                                                                        *
 * /| |                                                                        *
 * / \                                                            qs_scf.F:611 *
 *******************************************************************************


 ===== Routine Calling Stack ===== 

            3 scf_env_do_scf
            2 qs_energies
            1 CP2K

 *******************************************************************************
 *   ___                                                                       *
 *  /   \                                                                      *
 * [ABORT]                                                                     *
 *  \___/     SCF run NOT converged. To continue the calculation regardless,   *
 *    |             please set the keyword IGNORE_CONVERGENCE_FAILURE.         *
 *  O/|                                                                        *
 * /| |                                                                        *
 * / \                                                            qs_scf.F:611 *
 *******************************************************************************


 ===== Routine Calling Stack ===== 

            3 scf_env_do_scf
            2 qs_energies
            1 CP2K

 *******************************************************************************
 *   ___                                                                       *
 *  /   \                                                                      *
 * [ABORT]                                                                     *
 *  \___/     SCF run NOT converged. To continue the calculation regardless,   *
 *    |             please set the keyword IGNORE_CONVERGENCE_FAILURE.         *
 *  O/|                                                                        *
 * /| |                                                                        *
 * / \                                                            qs_scf.F:611 *
 *******************************************************************************


 ===== Routine Calling Stack ===== 

            3 scf_env_do_scf
            2 qs_energies
            1 CP2K

 *******************************************************************************
 *   ___                                                                       *
 *  /   \                                                                      *
 * [ABORT]                                                                     *
 *  \___/     SCF run NOT converged. To continue the calculation regardless,   *
 *    |             please set the keyword IGNORE_CONVERGENCE_FAILURE.         *
 *  O/|                                                                        *
 * /| |                                                                        *
 * / \                                                            qs_scf.F:611 *
 *******************************************************************************


 ===== Routine Calling Stack ===== 

            3 scf_env_do_scf
            2 qs_energies
            1 CP2K

 *******************************************************************************
 *   ___                                                                       *
 *  /   \                                                                      *
 * [ABORT]                                                                     *
 *  \___/     SCF run NOT converged. To continue the calculation regardless,   *
 *    |             please set the keyword IGNORE_CONVERGENCE_FAILURE.         *
 *  O/|                                                                        *
 * /| |                                                                        *
 * / \                                                            qs_scf.F:611 *
 *******************************************************************************


 ===== Routine Calling Stack ===== 

            3 scf_env_do_scf
            2 qs_energies
            1 CP2K

 *******************************************************************************
 *   ___                                                                       *
 *  /   \                                                                      *
 * [ABORT]                                                                     *
 *  \___/     SCF run NOT converged. To continue the calculation regardless,   *
 *    |             please set the keyword IGNORE_CONVERGENCE_FAILURE.         *
 *  O/|                                                                        *
 * /| |                                                                        *
 * / \                                                            qs_scf.F:611 *
 *******************************************************************************


 ===== Routine Calling Stack ===== 

            3 scf_env_do_scf
            2 qs_energies
            1 CP2K

 *******************************************************************************
 *   ___                                                                       *
 *  /   \                                                                      *
 * [ABORT]                                                                     *
 *  \___/     SCF run NOT converged. To continue the calculation regardless,   *
 *    |             please set the keyword IGNORE_CONVERGENCE_FAILURE.         *
 *  O/|                                                                        *
 * /| |                                                                        *
 * / \                                                            qs_scf.F:611 *
 *******************************************************************************


 ===== Routine Calling Stack ===== 

            3 scf_env_do_scf
            2 qs_energies
            1 CP2K

 *******************************************************************************
 *   ___                                                                       *
 *  /   \                                                                      *
 * [ABORT]                                                                     *
 *  \___/     SCF run NOT converged. To continue the calculation regardless,   *
 *    |             please set the keyword IGNORE_CONVERGENCE_FAILURE.         *
 *  O/|                                                                        *
 * /| |                                                                        *
 * / \                                                            qs_scf.F:611 *
 *******************************************************************************


 ===== Routine Calling Stack ===== 

            3 scf_env_do_scf
            2 qs_energies
            1 CP2K

 *******************************************************************************
 *   ___                                                                       *
 *  /   \                                                                      *
 * [ABORT]                                                                     *
 *  \___/     SCF run NOT converged. To continue the calculation regardless,   *
 *    |             please set the keyword IGNORE_CONVERGENCE_FAILURE.         *
 *  O/|                                                                        *
 * /| |                                                                        *
 * / \                                                            qs_scf.F:611 *
 *******************************************************************************


 ===== Routine Calling Stack ===== 

            3 scf_env_do_scf
            2 qs_energies
            1 CP2K

 *******************************************************************************
 *   ___                                                                       *
 *  /   \                                                                      *
 * [ABORT]                                                                     *
 *  \___/     SCF run NOT converged. To continue the calculation regardless,   *
 *    |             please set the keyword IGNORE_CONVERGENCE_FAILURE.         *
 *  O/|                                                                        *
 * /| |                                                                        *
 * / \                                                            qs_scf.F:611 *
 *******************************************************************************


 ===== Routine Calling Stack ===== 

            3 scf_env_do_scf
            2 qs_energies
            1 CP2K
