 DBCSR| CPU Multiplication driver                                           BLAS (U)
 DBCSR| Multrec recursion limit                                              512 (U)
 DBCSR| Multiplication stack size                                           1000 (D)
 DBCSR| Maximum elements for images                                    UNLIMITED (U)
 DBCSR| Multiplicative factor virtual images                                   1 (U)
 DBCSR| Use multiplication densification                                       T (D)
 DBCSR| Multiplication size stacks                                             3 (U)
 DBCSR| Use memory pool for CPU allocation                                     F (U)
 DBCSR| Number of 3D layers                                               SINGLE (U)
 DBCSR| Use MPI memory allocation                                              F (U)
 DBCSR| Use RMA algorithm                                                      F (U)
 DBCSR| Use Communication thread                                               T (U)
 DBCSR| Communication thread load                                             75 (D)
 DBCSR| MPI: My process id                                                     0
 DBCSR| MPI: Number of processes                                              24
 DBCSR| OMP: Current number of threads                                         4
 DBCSR| OMP: Max number of threads                                             4
 DBCSR| Split modifier for TAS multiplication algorithm                  1.0E+00 (U)


  **** **** ******  **  PROGRAM STARTED AT               2025-02-27 06:53:52.323
 ***** ** ***  *** **   PROGRAM STARTED ON                          i03r11c04s06
 **    ****   ******    PROGRAM STARTED BY                               di38fab
 ***** **    ** ** **   PROGRAM PROCESS ID                                169154
  **** **  *******  **  PROGRAM STARTED IN /hppfs/scratch/04/di38fab/05_MOL/W4-1
                                           1/nh/SZVSR

 CP2K| version string:                 CP2K version 2025.1 (Development Version)
 CP2K| source code revision number:                                  git:47877ba
 CP2K| cp2kflags: omp libint fftw3 libxc parallel scalapack max_contr=4         
 CP2K| is freely available from                            https://www.cp2k.org/
 CP2K| Program compiled at                          Thu Feb 20 16:00:34 CET 2025
 CP2K| Program compiled on                                               login04
 CP2K| Program compiled for                                        Supermuc-foss
 CP2K| Data directory path          /hppfs/work/pn36zo/di38fab/newcp2k/cp2k/data
 CP2K| Input file name                                                    GW.inp

 GLOBAL| Force Environment number                                              1
 GLOBAL| Basis set file name            /hppfs/scratch/04/di38fab/04_TMD/BASIS_A
 GLOBAL| Potential file name            /hppfs/work/pn36zo/di38fab/cp2k/data/ALL
 GLOBAL| MM Potential file name                                     MM_POTENTIAL
 GLOBAL| Coordinate file name                                      __STD_INPUT__
 GLOBAL| Method name                                                        CP2K
 GLOBAL| Project name                                                       MoS2
 GLOBAL| Run type                                                         ENERGY
 GLOBAL| FFT library                                                       FFTW3
 GLOBAL| Diagonalization library                                       ScaLAPACK
 GLOBAL| DGEMM library                                                      BLAS
 GLOBAL| Orthonormality check for eigenvectors                          DISABLED
 GLOBAL| Matrix multiplication library                                 ScaLAPACK
 GLOBAL| All-to-all communication in single precision                          F
 GLOBAL| FFTs using library dependent lengths                                  F
 GLOBAL| Grid backend                                                       AUTO
 GLOBAL| Global print level                                               MEDIUM
 GLOBAL| MPI I/O enabled                                                       T
 GLOBAL| Total number of message passing processes                            24
 GLOBAL| Number of threads for this process                                    4
 GLOBAL| This output is from process                                           0
 GLOBAL| OpenMP stack size per thread (OMP_STACKSIZE)                    default
 GLOBAL| CPU model name             Intel(R) Xeon(R) Platinum 8174 CPU @ 3.10GHz

 MEMORY| system memory details [Kb]
 MEMORY|                        rank 0           min           max       average
 MEMORY| MemTotal             98436708      98436664      98436708      98436686
 MEMORY| MemFree              84133452      84027776      84133452      84080614
 MEMORY| Buffers                     0             0             0             0
 MEMORY| Cached                2417508       2417508       2418864       2418186
 MEMORY| Slab                  1221680       1221680       1233132       1227406
 MEMORY| SReclaimable           268268        268268        270952        269610
 MEMORY| MemLikelyFree        86819228      86717592      86819228      86768410


 *** Fundamental physical constants (SI units) ***

 *** Literature: B. J. Mohr and B. N. Taylor,
 ***             CODATA recommended values of the fundamental physical
 ***             constants: 2006, Web Version 5.1
 ***             http://physics.nist.gov/constants

 Speed of light in vacuum [m/s]                             2.99792458000000E+08
 Magnetic constant or permeability of vacuum [N/A**2]       1.25663706143592E-06
 Electric constant or permittivity of vacuum [F/m]          8.85418781762039E-12
 Planck constant (h) [J*s]                                  6.62606896000000E-34
 Planck constant (h-bar) [J*s]                              1.05457162825177E-34
 Elementary charge [C]                                      1.60217648700000E-19
 Electron mass [kg]                                         9.10938215000000E-31
 Electron g factor [ ]                                     -2.00231930436220E+00
 Proton mass [kg]                                           1.67262163700000E-27
 Fine-structure constant                                    7.29735253760000E-03
 Rydberg constant [1/m]                                     1.09737315685270E+07
 Avogadro constant [1/mol]                                  6.02214179000000E+23
 Boltzmann constant [J/K]                                   1.38065040000000E-23
 Atomic mass unit [kg]                                      1.66053878200000E-27
 Bohr radius [m]                                            5.29177208590000E-11

 *** Conversion factors ***

 [u] -> [a.u.]                                              1.82288848426455E+03
 [Angstrom] -> [Bohr] = [a.u.]                              1.88972613288564E+00
 [a.u.] = [Bohr] -> [Angstrom]                              5.29177208590000E-01
 [a.u.] -> [s]                                              2.41888432650478E-17
 [a.u.] -> [fs]                                             2.41888432650478E-02
 [a.u.] -> [J]                                              4.35974393937059E-18
 [a.u.] -> [N]                                              8.23872205491840E-08
 [a.u.] -> [K]                                              3.15774647902944E+05
 [a.u.] -> [kJ/mol]                                         2.62549961709828E+03
 [a.u.] -> [kcal/mol]                                       6.27509468713739E+02
 [a.u.] -> [Pa]                                             2.94210107994716E+13
 [a.u.] -> [bar]                                            2.94210107994716E+08
 [a.u.] -> [atm]                                            2.90362800883016E+08
 [a.u.] -> [eV]                                             2.72113838565563E+01
 [a.u.] -> [Hz]                                             6.57968392072181E+15
 [a.u.] -> [1/cm] (wave numbers)                            2.19474631370540E+05
 [a.u./Bohr**2] -> [1/cm]                                   5.14048714338585E+03
 

 CELL_TOP| Volume [angstrom^3]:                                     27000.000000
 CELL_TOP| Vector a [angstrom    30.000     0.000     0.000   |a| =    30.000000
 CELL_TOP| Vector b [angstrom     0.000    30.000     0.000   |b| =    30.000000
 CELL_TOP| Vector c [angstrom     0.000     0.000    30.000   |c| =    30.000000
 CELL_TOP| Angle (b,c), alpha [degree]:                                90.000000
 CELL_TOP| Angle (a,c), beta  [degree]:                                90.000000
 CELL_TOP| Angle (a,b), gamma [degree]:                                90.000000
 CELL_TOP| Numerically orthorhombic:                                         YES
 CELL_TOP| Periodicity                                                      NONE

 GENERATE|  Preliminary Number of Bonds generated:                             0
 GENERATE|  Achieved consistency in connectivity generation.

 CELL| Volume [angstrom^3]:                                         27000.000000
 CELL| Vector a [angstrom]:      30.000     0.000     0.000   |a| =    30.000000
 CELL| Vector b [angstrom]:       0.000    30.000     0.000   |b| =    30.000000
 CELL| Vector c [angstrom]:       0.000     0.000    30.000   |c| =    30.000000
 CELL| Angle (b,c), alpha [degree]:                                    90.000000
 CELL| Angle (a,c), beta  [degree]:                                    90.000000
 CELL| Angle (a,b), gamma [degree]:                                    90.000000
 CELL| Numerically orthorhombic:                                             YES
 CELL| Periodicity                                                          NONE

 CELL_REF| Volume [angstrom^3]:                                     27000.000000
 CELL_REF| Vector a [angstrom    30.000     0.000     0.000   |a| =    30.000000
 CELL_REF| Vector b [angstrom     0.000    30.000     0.000   |b| =    30.000000
 CELL_REF| Vector c [angstrom     0.000     0.000    30.000   |c| =    30.000000
 CELL_REF| Angle (b,c), alpha [degree]:                                90.000000
 CELL_REF| Angle (a,c), beta  [degree]:                                90.000000
 CELL_REF| Angle (a,b), gamma [degree]:                                90.000000
 CELL_REF| Numerically orthorhombic:                                         YES
 CELL_REF| Periodicity                                                      NONE

 *******************************************************************************
                                    Kpoints
 *******************************************************************************
 BRILLOUIN|                                              Gamma-point calculation
 BRILLOUIN| K-Point point group symmetrization                               OFF
 BRILLOUIN| Wavefunction type                                            COMPLEX
 *******************************************************************************

 *******************************************************************************
 *******************************************************************************
 **                                                                           **
 **     #####                         ##              ##                      **
 **    ##   ##            ##          ##              ##                      **
 **   ##     ##                       ##            ######                    **
 **   ##     ##  ##   ##  ##   #####  ##  ##   ####   ##    #####    #####    **
 **   ##     ##  ##   ##  ##  ##      ## ##   ##      ##   ##   ##  ##   ##   **
 **   ##  ## ##  ##   ##  ##  ##      ####     ###    ##   ######   ######    **
 **    ##  ###   ##   ##  ##  ##      ## ##      ##   ##   ##       ##        **
 **     #######   #####   ##   #####  ##  ##  ####    ##    #####   ##        **
 **           ##                                                    ##        **
 **                                                                           **
 **                                                ... make the atoms dance   **
 **                                                                           **
 **            Copyright (C) by CP2K developers group (2000-2025)             **
 **                      J. Chem. Phys. 152, 194103 (2020)                    **
 **                                                                           **
 *******************************************************************************

 DFT| Spin restricted Kohn-Sham (RKS) calculation                            RKS
 DFT| Multiplicity                                                             1
 DFT| Number of spin states                                                    1
 DFT| Charge                                                                   0
 DFT| Self-interaction correction (SIC)                                       NO
 DFT| Cutoffs: density                                              1.000000E-10
 DFT|          gradient                                             1.000000E-10
 DFT|          tau                                                  1.000000E-10
 DFT|          cutoff_smoothing_range                               0.000000E+00
 DFT| XC density smoothing                                                  NONE
 DFT| XC derivatives                                                          PW

 FUNCTIONAL| PBE:
 FUNCTIONAL| J.P.Perdew, K.Burke, M.Ernzerhof, Phys. Rev. Letter, vol. 77, n 18,
 FUNCTIONAL|  pp. 3865-3868, (1996) {spin unpolarized}                          


 QS| Method:                                                                GAPW
 QS| Density plane wave grid type                        NON-SPHERICAL FULLSPACE
 QS| Number of grid levels:                                                    4
 QS| Density cutoff [a.u.]:                                                250.0
 QS| Multi grid cutoff [a.u.]: 1) grid level                               250.0
 QS|                           2) grid level                                83.3
 QS|                           3) grid level                                27.8
 QS|                           4) grid level                                 9.3
 QS| Grid level progression factor:                                          3.0
 QS| Relative density cutoff [a.u.]:                                        50.0
 QS| Interaction thresholds: eps_pgf_orb:                                1.0E-12
 QS|                         eps_filter_matrix:                          0.0E+00
 QS|                         eps_core_charge:                            1.0E-14
 QS|                         eps_rho_gspace:                             1.0E-12
 QS|                         eps_rho_rspace:                             1.0E-12
 QS|                         eps_gvg_rspace:                             1.0E-06
 QS|                         eps_ppl:                                    1.0E-02
 QS|                         eps_ppnl:                                   1.0E-08
 QS| GAPW|      One center basis from orbital basis primitives
 QS| GAPW|                   eps_fit:                                    1.0E-04
 QS| GAPW|                   eps_iso:                                    1.0E-12
 QS| GAPW|                   eps_svd:                                    1.0E-08
 QS| GAPW|                   eps_cpc:                                    1.0E-12
 QS| GAPW|   atom-r-grid: quadrature:                                     GC_LOG
 QS| GAPW|      atom-s-grid:  max l :                                          4
 QS| GAPW|      max_l_rho0 :                                                   2
 QS| GAPW|      At least one kind is NOT PAW, i.e. it has only soft AO 
 QS| GAPW|      The NOT PAW atoms are treated fully GPW


 ATOMIC KIND INFORMATION

  1. Atomic kind: N                                     Number of atoms:       1

     Orbital Basis Set                                      aug-SZV-MOLOPT-ae-SR

       Number of orbital shell sets:                                           2
       Number of orbital shells:                                               6
       Number of primitive Cartesian functions:                                7
       Number of Cartesian basis functions:                                   15
       Number of spherical basis functions:                                   14
       Norm type:                                                              2

       Normalised Cartesian orbitals:

                        Set   Shell   Orbital            Exponent    Coefficient

                          1       1    1s                0.112012       0.000000
                                                         0.285714       0.194997
                                                         0.878497       0.258372
                                                         3.780456      -0.193164

                          1       2    2s                0.112012       0.083551
                                                         0.285714      -0.189186
                                                         0.878497      -0.469875
                                                         3.780456      -0.002085

                          1       3    2px               0.112012       0.000000
                                                         0.285714       0.116706
                                                         0.878497       0.736704
                                                         3.780456       1.171553
                          1       3    2py               0.112012       0.000000
                                                         0.285714       0.116706
                                                         0.878497       0.736704
                                                         3.780456       1.171553
                          1       3    2pz               0.112012       0.000000
                                                         0.285714       0.116706
                                                         0.878497       0.736704
                                                         3.780456       1.171553

                          1       4    3px               0.112012       0.141957
                                                         0.285714      -0.286713
                                                         0.878497       0.074784
                                                         3.780456       0.008085
                          1       4    3py               0.112012       0.141957
                                                         0.285714      -0.286713
                                                         0.878497       0.074784
                                                         3.780456       0.008085
                          1       4    3pz               0.112012       0.141957
                                                         0.285714      -0.286713
                                                         0.878497       0.074784
                                                         3.780456       0.008085

                          1       5    3dx2              0.112012      -0.000364
                                                         0.285714       0.186009
                                                         0.878497      -0.044751
                                                         3.780456       1.815169
                          1       5    3dxy              0.112012      -0.000630
                                                         0.285714       0.322177
                                                         0.878497      -0.077512
                                                         3.780456       3.143965
                          1       5    3dxz              0.112012      -0.000630
                                                         0.285714       0.322177
                                                         0.878497      -0.077512
                                                         3.780456       3.143965
                          1       5    3dy2              0.112012      -0.000364
                                                         0.285714       0.186009
                                                         0.878497      -0.044751
                                                         3.780456       1.815169
                          1       5    3dyz              0.112012      -0.000630
                                                         0.285714       0.322177
                                                         0.878497      -0.077512
                                                         3.780456       3.143965
                          1       5    3dz2              0.112012      -0.000364
                                                         0.285714       0.186009
                                                         0.878497      -0.044751
                                                         3.780456       1.815169

                          2       1    1s               99.106169       3.454881
                                                        18.052312       3.341410
                                                         4.885660       1.041372

     RI Auxiliary Basis Set             RI_aug-SZV-MOLOPT-ae-SR_N_RI_025_s_p_d_f

       Number of orbital shell sets:                                           9
       Number of orbital shells:                                               9
       Number of primitive Cartesian functions:                                9
       Number of Cartesian basis functions:                                   29
       Number of spherical basis functions:                                   25
       Norm type:                                                              2

       Normalised Cartesian orbitals:

                        Set   Shell   Orbital            Exponent    Coefficient

                          1       1    1s                0.366043       0.335397

                          2       1    5px               0.438786       0.509044
                          2       1    5py               0.438786       0.509044
                          2       1    5pz               0.438786       0.509044

                          3       1    8dx2              0.671703       0.820294
                          3       1    8dxy              0.671703       1.420790
                          3       1    8dxz              0.671703       1.420790
                          3       1    8dy2              0.671703       0.820294
                          3       1    8dyz              0.671703       1.420790
                          3       1    8dz2              0.671703       0.820294

                          4       1    9fx3              0.687025       0.632620
                          4       1    9fx2y             0.687025       1.414582
                          4       1    9fx2z             0.687025       1.414582
                          4       1    9fxy2             0.687025       1.414582
                          4       1    9fxyz             0.687025       2.450128
                          4       1    9fxz2             0.687025       1.414582
                          4       1    9fy3              0.687025       0.632620
                          4       1    9fy2z             0.687025       1.414582
                          4       1    9fyz2             0.687025       1.414582
                          4       1    9fz3              0.687025       0.632620

                          5       1    2s                1.338522       0.886909

                          6       1    6px               1.638006       2.641401
                          6       1    6py               1.638006       2.641401
                          6       1    6pz               1.638006       2.641401

                          7       1    3s               12.321949       4.687266

                          8       1    7px              21.347579      65.407246
                          8       1    7py              21.347579      65.407246
                          8       1    7pz              21.347579      65.407246

                          9       1    4s              109.598167      24.141406

       Atomic covalent radius [Angstrom]:                                  0.750

       Atomic van der Waals radius [Angstrom]:                             1.550

     The atoms of this atomic kind are PAW atoms (GAPW):
       Hard Gaussian function radius:                                      1.512
       Rho0 radius:                                                        1.512
       Maximum GTO radius used for PAW projector construction:            24.566

     GAPW Soft Basis Set                               aug-SZV-MOLOPT-ae-SR_soft

       Number of orbital shell sets:                                           2
       Number of orbital shells:                                               6
       Number of primitive Cartesian functions:                                4
       Number of Cartesian basis functions:                                   15
       Number of spherical basis functions:                                   14
       Norm type:                                                              2

       Normalised Cartesian orbitals:

                        Set   Shell   Orbital            Exponent    Coefficient

                          1       1    1s                0.112012       0.000000
                                                         0.285714       0.194997
                                                         0.878497       0.258372
                                                         3.780456      -0.193164

                          1       2    2s                0.112012       0.083551
                                                         0.285714      -0.189186
                                                         0.878497      -0.469875
                                                         3.780456      -0.002085

                          1       3    2px               0.112012       0.000000
                                                         0.285714       0.116706
                                                         0.878497       0.736704
                                                         3.780456       1.171553
                          1       3    2py               0.112012       0.000000
                                                         0.285714       0.116706
                                                         0.878497       0.736704
                                                         3.780456       1.171553
                          1       3    2pz               0.112012       0.000000
                                                         0.285714       0.116706
                                                         0.878497       0.736704
                                                         3.780456       1.171553

                          1       4    3px               0.112012       0.141957
                                                         0.285714      -0.286713
                                                         0.878497       0.074784
                                                         3.780456       0.008085
                          1       4    3py               0.112012       0.141957
                                                         0.285714      -0.286713
                                                         0.878497       0.074784
                                                         3.780456       0.008085
                          1       4    3pz               0.112012       0.141957
                                                         0.285714      -0.286713
                                                         0.878497       0.074784
                                                         3.780456       0.008085

                          1       5    3dx2              0.112012      -0.000364
                                                         0.285714       0.186009
                                                         0.878497      -0.044751
                                                         3.780456       1.815169
                          1       5    3dxy              0.112012      -0.000630
                                                         0.285714       0.322177
                                                         0.878497      -0.077512
                                                         3.780456       3.143965
                          1       5    3dxz              0.112012      -0.000630
                                                         0.285714       0.322177
                                                         0.878497      -0.077512
                                                         3.780456       3.143965
                          1       5    3dy2              0.112012      -0.000364
                                                         0.285714       0.186009
                                                         0.878497      -0.044751
                                                         3.780456       1.815169
                          1       5    3dyz              0.112012      -0.000630
                                                         0.285714       0.322177
                                                         0.878497      -0.077512
                                                         3.780456       3.143965
                          1       5    3dz2              0.112012      -0.000364
                                                         0.285714       0.186009
                                                         0.878497      -0.044751
                                                         3.780456       1.815169

                          2       1    1s         

     AE Potential information for                                            ALL

       Description:                                       All-electron potential
                                          Krack, Parrinello, PCCP 2, 2105 (2000)

       Gaussian exponent of the core charge distribution:               5.979100
       Electronic configuration (s p d ...):                           4   3   0

  2. Atomic kind: H                                     Number of atoms:       1

     Orbital Basis Set                                      aug-SZV-MOLOPT-ae-SR

       Number of orbital shell sets:                                           1
       Number of orbital shells:                                               4
       Number of primitive Cartesian functions:                                4
       Number of Cartesian basis functions:                                    6
       Number of spherical basis functions:                                    6
       Norm type:                                                              2

       Normalised Cartesian orbitals:

                        Set   Shell   Orbital            Exponent    Coefficient

                          1       1    2s                0.065428       0.000000
                                                         0.168855       0.083474
                                                         0.623914       0.267839
                                                         3.425251       0.276934

                          1       2    3s                0.065428      -0.066952
                                                         0.168855       0.261968
                                                         0.623914       0.081548
                                                         3.425251      -0.022414

                          1       3    4s                0.065428       0.165615
                                                         0.168855      -0.226449
                                                         0.623914      -0.005802
                                                         3.425251       0.005451

                          1       4    3px               0.065428       0.053063
                                                         0.168855      -0.030502
                                                         0.623914       0.062721
                                                         3.425251       0.019012
                          1       4    3py               0.065428       0.053063
                                                         0.168855      -0.030502
                                                         0.623914       0.062721
                                                         3.425251       0.019012
                          1       4    3pz               0.065428       0.053063
                                                         0.168855      -0.030502
                                                         0.623914       0.062721
                                                         3.425251       0.019012

     RI Auxiliary Basis Set             RI_aug-SZV-MOLOPT-ae-SR_N_RI_006_s_p_d_f

       Number of orbital shell sets:                                           4
       Number of orbital shells:                                               4
       Number of primitive Cartesian functions:                                4
       Number of Cartesian basis functions:                                    6
       Number of spherical basis functions:                                    6
       Norm type:                                                              2

       Normalised Cartesian orbitals:

                        Set   Shell   Orbital            Exponent    Coefficient

                          1       1    1s                0.310545       0.296485

                          2       1    4px               0.543207       0.664733
                          2       1    4py               0.543207       0.664733
                          2       1    4pz               0.543207       0.664733

                          3       1    2s                0.965126       0.693982

                          4       1    3s                3.094977       1.663042

       Atomic covalent radius [Angstrom]:                                  0.320

       Atomic van der Waals radius [Angstrom]:                             1.090

     AE Potential information for                                            ALL

       Description:                                       All-electron potential
                                          Krack, Parrinello, PCCP 2, 2105 (2000)

       Gaussian exponent of the core charge distribution:              12.500000
       Electronic configuration (s p d ...):                           1   0   0


 MOLECULE KIND INFORMATION


 All atoms are their own molecule, skipping detailed information


 TOTAL NUMBERS AND MAXIMUM NUMBERS

  Total number of            - Atomic kinds:                                   2
                             - Atoms:                                          2
                             - Shell sets:                                     3
                             - Shells:                                        10
                             - Primitive Cartesian functions:                 11
                             - Cartesian basis functions:                     21
                             - Spherical basis functions:                     20

  Maximum angular momentum of the orbital basis functions:                     2


 MODULE QUICKSTEP: ATOMIC COORDINATES IN ANGSTROM

   Atom Kind Element         X             Y             Z       Z(eff)     Mass
      1    1 N     7     15.518596     15.000000     15.000000   7.0000  14.0067
      2    2 H     1     14.481404     15.000000     15.000000   1.0000   1.0079



 SCF PARAMETERS         Density guess:                                    ATOMIC
                        --------------------------------------------------------
                        max_scf:                                             500
                        max_scf_history:                                       0
                        max_diis:                                              4
                        --------------------------------------------------------
                        eps_scf:                                        1.00E-09
                        eps_scf_history:                                0.00E+00
                        eps_diis:                                       1.00E-01
                        eps_eigval:                                     1.00E-05
                        --------------------------------------------------------
                        level_shift [a.u.]:                             0.000000
                        added MOs                                        16    0
                        --------------------------------------------------------
                        Mixing method:                            BROYDEN_MIXING
                                                charge density mixing in g-space
                        --------------------------------------------------------
                        No outer SCF

 PW_GRID| Information for grid number                                          1
 PW_GRID| Grid distributed over                                    24 processors
 PW_GRID| Real space group dimensions                                    24    1
 PW_GRID| the grid is blocked:                                                NO
 PW_GRID| Cutoff [a.u.]                                                    250.0
 PW_GRID| spherical cutoff:                                                   NO
 PW_GRID|   Bounds   1           -202     202                Points:         405
 PW_GRID|   Bounds   2           -202     202                Points:         405
 PW_GRID|   Bounds   3           -202     202                Points:         405
 PW_GRID| Volume element (a.u.^3)  0.2743E-02     Volume (a.u.^3)    182205.0337
 PW_GRID| Grid span                                                    FULLSPACE
 PW_GRID|   Distribution                         Average         Max         Min
 PW_GRID|   G-Vectors                          2767921.9     2768175     2767770
 PW_GRID|   G-Rays                                6834.4        6835        6834
 PW_GRID|   Real Space Points                  2767921.9     2788425     2624400

 PW_GRID| Information for grid number                                          2
 PW_GRID| Number of the reference grid                                         1
 PW_GRID| Grid distributed over                                    24 processors
 PW_GRID| Real space group dimensions                                    24    1
 PW_GRID| the grid is blocked:                                                NO
 PW_GRID| Cutoff [a.u.]                                                     83.3
 PW_GRID| spherical cutoff:                                                   NO
 PW_GRID|   Bounds   1           -120     119                Points:         240
 PW_GRID|   Bounds   2           -120     119                Points:         240
 PW_GRID|   Bounds   3           -120     119                Points:         240
 PW_GRID| Volume element (a.u.^3)  0.1318E-01     Volume (a.u.^3)    182205.0337
 PW_GRID| Grid span                                                    FULLSPACE
 PW_GRID|   Distribution                         Average         Max         Min
 PW_GRID|   G-Vectors                           576000.0      576240      575760
 PW_GRID|   G-Rays                                2400.0        2401        2399
 PW_GRID|   Real Space Points                   576000.0      576000      576000

 PW_GRID| Information for grid number                                          3
 PW_GRID| Number of the reference grid                                         1
 PW_GRID| Grid distributed over                                    24 processors
 PW_GRID| Real space group dimensions                                    24    1
 PW_GRID| the grid is blocked:                                                NO
 PW_GRID| Cutoff [a.u.]                                                     27.8
 PW_GRID| spherical cutoff:                                                   NO
 PW_GRID|   Bounds   1            -67      67                Points:         135
 PW_GRID|   Bounds   2            -67      67                Points:         135
 PW_GRID|   Bounds   3            -67      67                Points:         135
 PW_GRID| Volume element (a.u.^3)  0.7406E-01     Volume (a.u.^3)    182205.0337
 PW_GRID| Grid span                                                    FULLSPACE
 PW_GRID|   Distribution                         Average         Max         Min
 PW_GRID|   G-Vectors                           102515.6      102735      102330
 PW_GRID|   G-Rays                                 759.4         761         758
 PW_GRID|   Real Space Points                   102515.6      109350       91125

 PW_GRID| Information for grid number                                          4
 PW_GRID| Number of the reference grid                                         1
 PW_GRID| Grid distributed over                                    24 processors
 PW_GRID| Real space group dimensions                                    24    1
 PW_GRID| the grid is blocked:                                                NO
 PW_GRID| Cutoff [a.u.]                                                      9.3
 PW_GRID| spherical cutoff:                                                   NO
 PW_GRID|   Bounds   1            -40      39                Points:          80
 PW_GRID|   Bounds   2            -40      39                Points:          80
 PW_GRID|   Bounds   3            -40      39                Points:          80
 PW_GRID| Volume element (a.u.^3)  0.3559         Volume (a.u.^3)    182205.0337
 PW_GRID| Grid span                                                    FULLSPACE
 PW_GRID|   Distribution                         Average         Max         Min
 PW_GRID|   G-Vectors                            21333.3       21360       21280
 PW_GRID|   G-Rays                                 266.7         267         266
 PW_GRID|   Real Space Points                    21333.3       25600       19200

 POISSON| Solver                                                         WAVELET
 POISSON| Wavelet| Scaling function                                           40
 POISSON| Periodicity                                                       NONE

 RS_GRID| Information for grid number                                          1
 RS_GRID|   Bounds   1           -202     202                Points:         405
 RS_GRID|   Bounds   2           -202     202                Points:         405
 RS_GRID|   Bounds   3           -202     202                Points:         405
 RS_GRID| Real space distribution over                                  4 groups
 RS_GRID| Real space distribution along direction                              2
 RS_GRID| Border size                                                         34
 RS_GRID| Real space distribution over                                  6 groups
 RS_GRID| Real space distribution along direction                              3
 RS_GRID| Border size                                                         34
 RS_GRID|   Distribution                         Average         Max         Min
 RS_GRID|   Planes                                 169.2         170         169
 RS_GRID|   Distribution                         Average         Max         Min
 RS_GRID|   Planes                                 135.5         136         135

 RS_GRID| Information for grid number                                          2
 RS_GRID|   Bounds   1           -120     119                Points:         240
 RS_GRID|   Bounds   2           -120     119                Points:         240
 RS_GRID|   Bounds   3           -120     119                Points:         240
 RS_GRID| Real space distribution over                                  4 groups
 RS_GRID| Real space distribution along direction                              2
 RS_GRID| Border size                                                         37
 RS_GRID| Real space distribution over                                  6 groups
 RS_GRID| Real space distribution along direction                              3
 RS_GRID| Border size                                                         37
 RS_GRID|   Distribution                         Average         Max         Min
 RS_GRID|   Planes                                 134.0         134         134
 RS_GRID|   Distribution                         Average         Max         Min
 RS_GRID|   Planes                                 114.0         114         114

 RS_GRID| Information for grid number                                          3
 RS_GRID|   Bounds   1            -67      67                Points:         135
 RS_GRID|   Bounds   2            -67      67                Points:         135
 RS_GRID|   Bounds   3            -67      67                Points:         135
 RS_GRID| Real space fully replicated
 RS_GRID| Group size                                                           1

 RS_GRID| Information for grid number                                          4
 RS_GRID|   Bounds   1            -40      39                Points:          80
 RS_GRID|   Bounds   2            -40      39                Points:          80
 RS_GRID|   Bounds   3            -40      39                Points:          80
 RS_GRID| Real space fully replicated
 RS_GRID| Group size                                                           1
 
 RI-RPA| using GPW style
 

 Number of electrons:                                                          8
 Number of occupied orbitals:                                                  4
 Number of molecular orbitals:                                                20

 Number of orbital functions:                                                 20
 Number of independent orbital functions:                                     20

 Extrapolation method: initial_guess

 Atomic guess: The first density matrix is obtained in terms of atomic orbitals
               and electronic configurations assigned to each atomic kind

 Guess for atomic kind: N

 Electronic structure
    Total number of core electrons                                          0.00
    Total number of valence electrons                                       7.00
    Total number of electrons                                               7.00
    Multiplicity                                                   not specified
    S      2.00  2.00
    P      3.00


 *******************************************************************************
                  Iteration          Convergence                     Energy [au]
 *******************************************************************************
                          1        0.159909                     -53.340877683251
                          2        0.769146E-01                 -53.353877926770
                          3        0.463278E-03                 -53.358451509292
                          4        0.156014E-03                 -53.358451645833
                          5        0.102251E-04                 -53.358451658533
                          6        0.178265E-08                 -53.358451658590

 Energy components [Hartree]           Total Energy ::          -53.358451658590
                                        Band Energy ::          -29.695765597812
                                     Kinetic Energy ::           52.385975587247
                                   Potential Energy ::         -105.744427245837
                                      Virial (-V/T) ::            2.018563672060
                                        Core Energy ::          -72.851122194822
                                          XC Energy ::           -6.109149652554
                                     Coulomb Energy ::           25.601820188786

 Orbital energies  State     L     Occupation   Energy[a.u.]          Energy[eV]

                       1     0          2.000     -13.845221         -376.747634
                       2     0          2.000      -0.658428          -17.916731

                       1     1          3.000      -0.229489           -6.244716


 Total Electron Density at R=0:                                       126.344533

 Guess for atomic kind: H

 Electronic structure
    Total number of core electrons                                          0.00
    Total number of valence electrons                                       1.00
    Total number of electrons                                               1.00
    Multiplicity                                                   not specified
    S      1.00


 *******************************************************************************
                  Iteration          Convergence                     Energy [au]
 *******************************************************************************
                          1        0.105001E-01                  -0.442912571909
                          2        0.809393E-03                  -0.443000038014
                          3        0.126045E-03                  -0.443002205783
                          4        0.926691E-07                  -0.443002227638

 Energy components [Hartree]           Total Energy ::           -0.443002227638
                                        Band Energy ::           -0.231242105371
                                     Kinetic Energy ::            0.416655567325
                                   Potential Energy ::           -0.859657794963
                                      Virial (-V/T) ::            2.063233669195
                                        Core Energy ::           -0.493343888102
                                          XC Energy ::           -0.231659799565
                                     Coulomb Energy ::            0.282001460029

 Orbital energies  State     L     Occupation   Energy[a.u.]          Energy[eV]

                       1     0          1.000      -0.231242           -6.292418


 Total Electron Density at R=0:                                         0.184980
 Re-scaling the density matrix to get the right number of electrons
                  # Electrons              Trace(P)               Scaling factor
                            8                 8.000                        1.000


 SCF WAVEFUNCTION OPTIMIZATION

  Step     Update method      Time    Convergence         Total energy    Change
  ------------------------------------------------------------------------------
     1 NoMix/Diag. 0.10E+00    5.8     0.94794654       -54.4184225199 -5.44E+01
     2 Broy./Diag. 0.10E+00    4.7     1.86568156       -53.7948958909  6.24E-01
     3 Broy./Diag. 0.10E+00    4.8     1.86568158       -53.7723119513  2.26E-02
     4 Broy./Diag. 0.10E+00    4.9     1.86248251       -53.8367205504 -6.44E-02
     5 Broy./Diag. 0.10E+00    4.9     1.85749748       -53.9078663651 -7.11E-02
     6 Broy./Diag. 0.10E+00    5.0     1.85009503       -54.0071477073 -9.93E-02
     7 Broy./Diag. 0.10E+00    5.1     1.84252013       -54.1067286470 -9.96E-02
     8 Broy./Diag. 0.10E+00    5.1     1.83135401       -54.2145172080 -1.08E-01
     9 Broy./Diag. 0.10E+00    5.3     1.82401470       -54.2913503626 -7.68E-02
    10 Broy./Diag. 0.10E+00    5.3     1.81436399       -54.3539532074 -6.26E-02
    11 Broy./Diag. 0.10E+00    5.3     1.81240193       -54.3814491406 -2.75E-02
    12 Broy./Diag. 0.10E+00    5.3     1.80797242       -54.4070419296 -2.56E-02
    13 Broy./Diag. 0.10E+00    5.3     1.80797209       -54.4104285292 -3.39E-03
    14 Broy./Diag. 0.10E+00    5.3     1.80622012       -54.4234259835 -1.30E-02
    15 Broy./Diag. 0.10E+00    5.3     1.80621933       -54.4201287779  3.30E-03
    16 Broy./Diag. 0.10E+00    5.3     1.80518224       -54.4299251543 -9.80E-03
    17 Broy./Diag. 0.10E+00    5.3     1.80518052       -54.4246320457  5.29E-03
    18 Broy./Diag. 0.10E+00    5.3     1.80449656       -54.4328033755 -8.17E-03
    19 Broy./Diag. 0.10E+00    5.3     1.80449297       -54.4258453725  6.96E-03
    20 Broy./Diag. 0.10E+00    5.3     1.80410404       -54.4327930525 -6.95E-03
    21 Broy./Diag. 0.10E+00    5.3     1.80409695       -54.4250376339  7.76E-03
    22 Broy./Diag. 0.10E+00    5.3     1.80380456       -54.4317226386 -6.69E-03
    23 Broy./Diag. 0.10E+00    5.3     1.80379105       -54.4239131443  7.81E-03
    24 Broy./Diag. 0.10E+00    5.3     1.80350347       -54.4307583241 -6.85E-03
    25 Broy./Diag. 0.10E+00    5.5     1.80347867       -54.4230883893  7.67E-03
    26 Broy./Diag. 0.10E+00    5.3     1.80317848       -54.4301536029 -7.07E-03
    27 Broy./Diag. 0.10E+00    5.3     1.80313465       -54.4225865450  7.57E-03
    28 Broy./Diag. 0.10E+00    5.3     1.80282111       -54.4298436705 -7.26E-03
    29 Broy./Diag. 0.10E+00    5.3     1.80274690       -54.4223667272  7.48E-03
    30 Broy./Diag. 0.10E+00    5.3     1.80241032       -54.4298054091 -7.44E-03
    31 Broy./Diag. 0.10E+00    5.3     1.80229098       -54.4223993334  7.41E-03
    32 Broy./Diag. 0.10E+00    5.3     1.80192158       -54.4300005716 -7.60E-03
    33 Broy./Diag. 0.10E+00    5.3     1.80174173       -54.4226365074  7.36E-03
    34 Broy./Diag. 0.10E+00    5.3     1.80133060       -54.4303732202 -7.74E-03
    35 Broy./Diag. 0.10E+00    5.3     1.80108282       -54.4230210963  7.35E-03
    36 Broy./Diag. 0.10E+00    5.3     1.80062594       -54.4308674669 -7.85E-03
    37 Broy./Diag. 0.10E+00    5.3     1.80032885       -54.4235072986  7.36E-03
    38 Broy./Diag. 0.10E+00    5.3     1.79983919       -54.4314431517 -7.94E-03
    39 Broy./Diag. 0.10E+00    5.3     1.79956703       -54.4240575521  7.39E-03
    40 Broy./Diag. 0.10E+00    5.3     1.79909789       -54.4320690996 -8.01E-03
    41 Broy./Diag. 0.10E+00    5.4     1.79901972       -54.4246439661  7.43E-03
    42 Broy./Diag. 0.10E+00    5.3     1.79869681       -54.4327198871 -8.08E-03
    43 Broy./Diag. 0.10E+00    5.3     1.79907429       -54.4252452119  7.47E-03
    44 Broy./Diag. 0.10E+00    5.3     1.79911084       -54.4333771918 -8.13E-03
    45 Broy./Diag. 0.10E+00    5.3     1.79995156       -54.4258400623  7.54E-03
    46 Broy./Diag. 0.10E+00    5.3     1.80041003       -54.4340326271 -8.19E-03
    47 Broy./Diag. 0.10E+00    5.3     1.79955339       -54.4264136091  7.62E-03
    48 Broy./Diag. 0.10E+00    5.3     1.79916561       -54.4346793710 -8.27E-03
    49 Broy./Diag. 0.10E+00    5.5     1.79054933       -54.4269764387  7.70E-03
    50 Broy./Diag. 0.10E+00    5.3     1.78647745       -54.4352934668 -8.32E-03
    51 Broy./Diag. 0.10E+00    5.3     1.76041960       -54.4276357395  7.66E-03
    52 Broy./Diag. 0.10E+00    5.3     1.74782171       -54.4359350540 -8.30E-03
    53 Broy./Diag. 0.10E+00    5.3     1.66004137       -54.4283853656  7.55E-03
    54 Broy./Diag. 0.10E+00    5.2     1.62083904       -54.4366735634 -8.29E-03
    55 Broy./Diag. 0.10E+00    5.3     1.34763553       -54.4291822419  7.49E-03
    56 Broy./Diag. 0.10E+00    5.3     1.26038964       -54.4374761376 -8.29E-03
    57 Broy./Diag. 0.10E+00    5.3     1.40294856       -54.4295008930  7.98E-03
    58 Broy./Diag. 0.10E+00    5.3     1.58186083       -54.4372178971 -7.72E-03
    59 Broy./Diag. 0.10E+00    5.2     1.58681188       -54.4319773498  5.24E-03
    60 Broy./Diag. 0.10E+00    5.2     1.65798687       -54.4357570638 -3.78E-03
    61 Broy./Diag. 0.10E+00    5.3     1.64206052       -54.4330204092  2.74E-03
    62 Broy./Diag. 0.10E+00    5.3     1.67368848       -54.4349051281 -1.88E-03
    63 Broy./Diag. 0.10E+00    5.3     1.66281925       -54.4335425135  1.36E-03
    64 Broy./Diag. 0.10E+00    5.3     1.68020474       -54.4345642590 -1.02E-03
    65 Broy./Diag. 0.10E+00    5.3     1.67588971       -54.4337712606  7.93E-04
    66 Broy./Diag. 0.10E+00    5.3     1.69182846       -54.4344537128 -6.82E-04
    67 Broy./Diag. 0.10E+00    5.3     1.69815402       -54.4338659327  5.88E-04
    68 Broy./Diag. 0.10E+00    5.3     1.72388927       -54.4344316382 -5.66E-04
    69 Broy./Diag. 0.10E+00    5.4     1.74046038       -54.4339079137  5.24E-04
    70 Broy./Diag. 0.10E+00    5.3     1.77049526       -54.4345409761 -6.33E-04
    71 Broy./Diag. 0.10E+00    5.3     1.78020744       -54.4342019020  3.39E-04
    72 Broy./Diag. 0.10E+00    5.3     1.79181388       -54.4351646241 -9.63E-04
    73 Broy./Diag. 0.10E+00    5.4     1.79174728       -54.4349780861  1.87E-04
    74 Broy./Diag. 0.10E+00    5.3     1.79044956       -54.4357466479 -7.69E-04
    75 Broy./Diag. 0.10E+00    5.3     1.78765913       -54.4357264753  2.02E-05
    76 Broy./Diag. 0.10E+00    5.3     1.78374436       -54.4362477781 -5.21E-04
    77 Broy./Diag. 0.10E+00    5.2     1.78087907       -54.4362681353 -2.04E-05
    78 Broy./Diag. 0.10E+00    5.3     1.77779634       -54.4366959976 -4.28E-04
    79 Broy./Diag. 0.10E+00    5.3     1.77621485       -54.4366829080  1.31E-05
    80 Broy./Diag. 0.10E+00    5.3     1.77479105       -54.4370959793 -4.13E-04
    81 Broy./Diag. 0.10E+00    5.4     1.77478788       -54.4370239291  7.21E-05
    82 Broy./Diag. 0.10E+00    5.3     1.77443512       -54.4374652969 -4.41E-04
    83 Broy./Diag. 0.10E+00    5.3     1.77551617       -54.4373538130  1.11E-04
    84 Broy./Diag. 0.10E+00    5.3     1.77680535       -54.4378223758 -4.69E-04
    85 Broy./Diag. 0.10E+00    5.2     1.77964232       -54.4376661956  1.56E-04
    86 Broy./Diag. 0.10E+00    5.2     1.78312345       -54.4381780167 -5.12E-04
    87 Broy./Diag. 0.10E+00    5.2     1.78750294       -54.4379385218  2.39E-04
    88 Broy./Diag. 0.10E+00    5.3     1.79135503       -54.4385183877 -5.80E-04
    89 Broy./Diag. 0.10E+00    5.3     1.79416154       -54.4381427270  3.76E-04
    90 Broy./Diag. 0.10E+00    5.3     1.79554879       -54.4387992761 -6.57E-04
    91 Broy./Diag. 0.10E+00    5.2     1.79568170       -54.4383002320  4.99E-04
    92 Broy./Diag. 0.10E+00    5.3     1.79534713       -54.4390361419 -7.36E-04
    93 Broy./Diag. 0.10E+00    5.3     1.79461470       -54.4384725202  5.64E-04
    94 Broy./Diag. 0.10E+00    5.3     1.79400068       -54.4392574618 -7.85E-04
    95 Broy./Diag. 0.10E+00    5.3     1.79336097       -54.4386536800  6.04E-04
    96 Broy./Diag. 0.10E+00    5.4     1.79287810       -54.4394599246 -8.06E-04
    97 Broy./Diag. 0.10E+00    5.3     1.79249180       -54.4388313390  6.29E-04
    98 Broy./Diag. 0.10E+00    5.3     1.79217809       -54.4396463412 -8.15E-04
    99 Broy./Diag. 0.10E+00    5.2     1.79213485       -54.4390025394  6.44E-04
   100 Broy./Diag. 0.10E+00    5.3     1.79216380       -54.4398197898 -8.17E-04
   101 Broy./Diag. 0.10E+00    5.3     1.79253698       -54.4391707188  6.49E-04
   102 Broy./Diag. 0.10E+00    5.2     1.79298538       -54.4399807990 -8.10E-04
   103 Broy./Diag. 0.10E+00    5.2     1.79364044       -54.4393341710  6.47E-04
   104 Broy./Diag. 0.10E+00    5.3     1.79427965       -54.4401261865 -7.92E-04
   105 Broy./Diag. 0.10E+00    5.3     1.79485053       -54.4394906276  6.36E-04
   106 Broy./Diag. 0.10E+00    5.3     1.79525126       -54.4402560463 -7.65E-04
   107 Broy./Diag. 0.10E+00    5.3     1.79536454       -54.4396387414  6.17E-04
   108 Broy./Diag. 0.10E+00    5.3     1.79528970       -54.4403749191 -7.36E-04
   109 Broy./Diag. 0.10E+00    5.2     1.79497543       -54.4397775555  5.97E-04
   110 Broy./Diag. 0.10E+00    5.2     1.79460082       -54.4404889123 -7.11E-04
   111 Broy./Diag. 0.10E+00    5.3     1.79415426       -54.4399065693  5.82E-04
   112 Broy./Diag. 0.10E+00    5.3     1.79374688       -54.4406014238 -6.95E-04
   113 Broy./Diag. 0.10E+00    5.4     1.79338869       -54.4400259831  5.75E-04
   114 Broy./Diag. 0.10E+00    5.3     1.79311054       -54.4407113528 -6.85E-04
   115 Broy./Diag. 0.10E+00    5.3     1.79295668       -54.4401363820  5.75E-04
   116 Broy./Diag. 0.10E+00    5.3     1.79290541       -54.4408193032 -6.83E-04
   117 Broy./Diag. 0.10E+00    5.2     1.79302320       -54.4402382615  5.81E-04
   118 Broy./Diag. 0.10E+00    5.3     1.79324231       -54.4409253153 -6.87E-04
   119 Broy./Diag. 0.10E+00    5.3     1.79360850       -54.4403315002  5.94E-04
   120 Broy./Diag. 0.10E+00    5.3     1.79401551       -54.4410291726 -6.98E-04
   121 Broy./Diag. 0.10E+00    5.3     1.79444954       -54.4404152478  6.14E-04
   122 Broy./Diag. 0.10E+00    5.2     1.79480762       -54.4411290714 -7.14E-04
   123 Broy./Diag. 0.10E+00    5.2     1.79502910       -54.4404909529  6.38E-04
   124 Broy./Diag. 0.10E+00    5.3     1.79509906       -54.4412259293 -7.35E-04
   125 Broy./Diag. 0.10E+00    5.2     1.79497678       -54.4405623710  6.64E-04
   126 Broy./Diag. 0.10E+00    5.2     1.79475162       -54.4413182487 -7.56E-04
   127 Broy./Diag. 0.10E+00    5.3     1.79441623       -54.4406320982  6.86E-04
   128 Broy./Diag. 0.10E+00    5.3     1.79407260       -54.4414051469 -7.73E-04
   129 Broy./Diag. 0.10E+00    5.3     1.79372693       -54.4407013211  7.04E-04
   130 Broy./Diag. 0.10E+00    5.3     1.79343381       -54.4414857453 -7.84E-04
   131 Broy./Diag. 0.10E+00    5.2     1.79321819       -54.4407693530  7.16E-04
   132 Broy./Diag. 0.10E+00    5.3     1.79308467       -54.4415600844 -7.91E-04
   133 Broy./Diag. 0.10E+00    5.3     1.79308056       -54.4408359087  7.24E-04
   134 Broy./Diag. 0.10E+00    5.3     1.79316884       -54.4416285922 -7.93E-04
   135 Broy./Diag. 0.10E+00    5.3     1.79339478       -54.4409012687  7.27E-04
   136 Broy./Diag. 0.10E+00    5.3     1.79368654       -54.4416910402 -7.90E-04
   137 Broy./Diag. 0.10E+00    5.4     1.79404941       -54.4409654489  7.26E-04
   138 Broy./Diag. 0.10E+00    5.3     1.79439890       -54.4417472907 -7.82E-04
   139 Broy./Diag. 0.10E+00    5.3     1.79468651       -54.4410276937  7.20E-04
   140 Broy./Diag. 0.10E+00    5.2     1.79487039       -54.4417984510 -7.71E-04
   141 Broy./Diag. 0.10E+00    5.3     1.79489141       -54.4410891047  7.09E-04
   142 Broy./Diag. 0.10E+00    5.3     1.79479824       -54.4418478080 -7.59E-04
   143 Broy./Diag. 0.10E+00    5.2     1.79456439       -54.4411493024  6.99E-04
   144 Broy./Diag. 0.10E+00    5.3     1.79428540       -54.4418967963 -7.47E-04
   145 Broy./Diag. 0.10E+00    5.3     1.79395983       -54.4412062805  6.91E-04
   146 Broy./Diag. 0.10E+00    5.2     1.79365866       -54.4419460449 -7.40E-04
   147 Broy./Diag. 0.10E+00    5.3     1.79339760       -54.4412593321  6.87E-04
   148 Broy./Diag. 0.10E+00    5.2     1.79320068       -54.4419944930 -7.35E-04
   149 Broy./Diag. 0.10E+00    5.3     1.79310451       -54.4413082187  6.86E-04
   150 Broy./Diag. 0.10E+00    5.2     1.79309159       -54.4420422417 -7.34E-04
   151 Broy./Diag. 0.10E+00    5.2     1.79320811       -54.4413522134  6.90E-04
   152 Broy./Diag. 0.10E+00    5.3     1.79340129       -54.4420891222 -7.37E-04
   153 Broy./Diag. 0.10E+00    5.3     1.79369611       -54.4413916615  6.97E-04
   154 Broy./Diag. 0.10E+00    5.3     1.79401625       -54.4421352528 -7.44E-04
   155 Broy./Diag. 0.10E+00    5.3     1.79433932       -54.4414265468  7.09E-04
   156 Broy./Diag. 0.10E+00    5.3     1.79460095       -54.4421803005 -7.54E-04
   157 Broy./Diag. 0.10E+00    5.2     1.79474565       -54.4414581702  7.22E-04
   158 Broy./Diag. 0.10E+00    5.3     1.79477781       -54.4422248085 -7.67E-04
   159 Broy./Diag. 0.10E+00    5.2     1.79465683       -54.4414890291  7.36E-04
   160 Broy./Diag. 0.10E+00    5.3     1.79445932       -54.4422688943 -7.80E-04
   161 Broy./Diag. 0.10E+00    5.3     1.79417318       -54.4415212111  7.48E-04
   162 Broy./Diag. 0.10E+00    5.4     1.79388231       -54.4423113284 -7.90E-04
   163 Broy./Diag. 0.10E+00    5.3     1.79359213       -54.4415537082  7.58E-04
   164 Broy./Diag. 0.10E+00    5.3     1.79334879       -54.4423509975 -7.97E-04
   165 Broy./Diag. 0.10E+00    5.3     1.79317629       -54.4415859851  7.65E-04
   166 Broy./Diag. 0.10E+00    5.2     1.79307782       -54.4423869408 -8.01E-04
   167 Broy./Diag. 0.10E+00    5.3     1.79309431       -54.4416173875  7.70E-04
   168 Broy./Diag. 0.10E+00    5.3     1.79319142       -54.4424195662 -8.02E-04
   169 Broy./Diag. 0.10E+00    5.3     1.79340588       -54.4416482814  7.71E-04
   170 Broy./Diag. 0.10E+00    5.2     1.79367266       -54.4424483424 -8.00E-04
   171 Broy./Diag. 0.10E+00    5.2     1.79399382       -54.4416783203  7.70E-04
   172 Broy./Diag. 0.10E+00    5.3     1.79429524       -54.4424738116 -7.95E-04
   173 Broy./Diag. 0.10E+00    5.3     1.79453609       -54.4417077430  7.66E-04
   174 Broy./Diag. 0.10E+00    5.2     1.79468190       -54.4424966299 -7.89E-04
   175 Broy./Diag. 0.10E+00    5.3     1.79468525       -54.4417370084  7.60E-04
   176 Broy./Diag. 0.10E+00    5.3     1.79458837       -54.4425195497 -7.83E-04
   177 Broy./Diag. 0.10E+00    5.3     1.79437077       -54.4417672185  7.52E-04
   178 Broy./Diag. 0.10E+00    5.3     1.79411395       -54.4425438387 -7.77E-04
   179 Broy./Diag. 0.10E+00    5.2     1.79381914       -54.4417970708  7.47E-04
   180 Broy./Diag. 0.10E+00    5.3     1.79354760       -54.4425689515 -7.72E-04
   181 Broy./Diag. 0.10E+00    5.3     1.79331651       -54.4418251579  7.44E-04
   182 Broy./Diag. 0.10E+00    5.2     1.79314636       -54.4425942205 -7.69E-04
   183 Broy./Diag. 0.10E+00    5.2     1.79307191       -54.4418499473  7.44E-04
   184 Broy./Diag. 0.10E+00    5.3     1.79307591       -54.4426184853 -7.69E-04
   185 Broy./Diag. 0.10E+00    5.3     1.79319929       -54.4418719899  7.46E-04
   186 Broy./Diag. 0.10E+00    5.3     1.79339241       -54.4426423596 -7.70E-04
   187 Broy./Diag. 0.10E+00    5.3     1.79367462       -54.4418911169  7.51E-04
   188 Broy./Diag. 0.10E+00    5.2     1.79397603       -54.4426655632 -7.74E-04
   189 Broy./Diag. 0.10E+00    5.4     1.79427222       -54.4419071576  7.58E-04
   190 Broy./Diag. 0.10E+00    5.2     1.79450765       -54.4426881844 -7.81E-04
   191 Broy./Diag. 0.10E+00    5.3     1.79462978       -54.4419215694  7.67E-04
   192 Broy./Diag. 0.10E+00    5.3     1.79464770       -54.4427111672 -7.90E-04
   193 Broy./Diag. 0.10E+00    5.3     1.79452383       -54.4419364028  7.75E-04
   194 Broy./Diag. 0.10E+00    5.3     1.79433101       -54.4427345090 -7.98E-04
   195 Broy./Diag. 0.10E+00    5.3     1.79405828       -54.4419530087  7.82E-04
   196 Broy./Diag. 0.10E+00    5.2     1.79378312       -54.4427581463 -8.05E-04
   197 Broy./Diag. 0.10E+00    5.3     1.79351220       -54.4419709263  7.87E-04
   198 Broy./Diag. 0.10E+00    5.3     1.79328732       -54.4427803806 -8.09E-04
   199 Broy./Diag. 0.10E+00    5.3     1.79313314       -54.4419885380  7.92E-04
   200 Broy./Diag. 0.10E+00    5.2     1.79305084       -54.4428003259 -8.12E-04
   201 Broy./Diag. 0.10E+00    5.3     1.79308005       -54.4420056911  7.95E-04
   202 Broy./Diag. 0.10E+00    5.3     1.79318608       -54.4428176606 -8.12E-04
   203 Broy./Diag. 0.10E+00    5.3     1.79340259       -54.4420218375  7.96E-04
   204 Broy./Diag. 0.10E+00    5.3     1.79366619       -54.4428323069 -8.10E-04
   205 Broy./Diag. 0.10E+00    5.3     1.79397646       -54.4420373314  7.95E-04
   206 Broy./Diag. 0.10E+00    5.3     1.79426323       -54.4428448613 -8.08E-04
   207 Broy./Diag. 0.10E+00    5.3     1.79448641       -54.4420525092  7.92E-04
   208 Broy./Diag. 0.10E+00    5.2     1.79461617       -54.4428559716 -8.03E-04
   209 Broy./Diag. 0.10E+00    5.4     1.79460823       -54.4420682357  7.88E-04
   210 Broy./Diag. 0.10E+00    5.2     1.79450547       -54.4428677894 -8.00E-04
   211 Broy./Diag. 0.10E+00    5.2     1.79428945       -54.4420852261  7.83E-04
   212 Broy./Diag. 0.10E+00    5.3     1.79403812       -54.4428814029 -7.96E-04
   213 Broy./Diag. 0.10E+00    5.3     1.79375366       -54.4421027764  7.79E-04
   214 Broy./Diag. 0.10E+00    5.2     1.79349366       -54.4428959905 -7.93E-04
   215 Broy./Diag. 0.10E+00    5.3     1.79327594       -54.4421192876  7.77E-04
   216 Broy./Diag. 0.10E+00    5.3     1.79311892       -54.4429107260 -7.91E-04
   217 Broy./Diag. 0.10E+00    5.4     1.79305714       -54.4421339090  7.77E-04
   218 Broy./Diag. 0.10E+00    5.3     1.79307238       -54.4429246881 -7.91E-04
   219 Broy./Diag. 0.10E+00    5.3     1.79320387       -54.4421461136  7.79E-04
   220 Broy./Diag. 0.10E+00    5.3     1.79340191       -54.4429378644 -7.92E-04
   221 Broy./Diag. 0.10E+00    5.3     1.79368347       -54.4421559836  7.82E-04
   222 Broy./Diag. 0.10E+00    5.3     1.79398002       -54.4429503207 -7.94E-04
   223 Broy./Diag. 0.10E+00    5.3     1.79426593       -54.4421637213  7.87E-04
   224 Broy./Diag. 0.10E+00    5.3     1.79448891       -54.4429624776 -7.99E-04
   225 Broy./Diag. 0.10E+00    5.3     1.79459814       -54.4421707694  7.92E-04
   226 Broy./Diag. 0.10E+00    5.3     1.79460525       -54.4429752154 -8.04E-04
   227 Broy./Diag. 0.10E+00    5.3     1.79447543       -54.4421789439  7.96E-04
   228 Broy./Diag. 0.10E+00    5.3     1.79428034       -54.4429893506 -8.10E-04
   229 Broy./Diag. 0.10E+00    5.3     1.79401085       -54.4421890885  8.00E-04
   230 Broy./Diag. 0.10E+00    5.3     1.79374104       -54.4430039922 -8.15E-04
   231 Broy./Diag. 0.10E+00    5.2     1.79347895       -54.4422001741  8.04E-04
   232 Broy./Diag. 0.10E+00    5.3     1.79326341       -54.4430177858 -8.18E-04
   233 Broy./Diag. 0.10E+00    5.3     1.79312009       -54.4422112121  8.07E-04
   234 Broy./Diag. 0.10E+00    5.3     1.79304829       -54.4430299561 -8.19E-04
   235 Broy./Diag. 0.10E+00    5.3     1.79308742       -54.4422215510  8.08E-04
   236 Broy./Diag. 0.10E+00    5.4     1.79320186       -54.4430401091 -8.19E-04
   237 Broy./Diag. 0.10E+00    5.3     1.79342341       -54.4422307307  8.09E-04
   238 Broy./Diag. 0.10E+00    5.3     1.79368899       -54.4430480192 -8.17E-04
   239 Broy./Diag. 0.10E+00    5.3     1.79399583       -54.4422389729  8.09E-04
   240 Broy./Diag. 0.10E+00    5.2     1.79427585       -54.4430541457 -8.15E-04
   241 Broy./Diag. 0.10E+00    5.4     1.79448822       -54.4422470098  8.07E-04
   242 Broy./Diag. 0.10E+00    5.3     1.79460674       -54.4430597359 -8.13E-04
   243 Broy./Diag. 0.10E+00    5.3     1.79458851       -54.4422560410  8.04E-04
   244 Broy./Diag. 0.10E+00    5.3     1.79447844       -54.4430664604 -8.10E-04
   245 Broy./Diag. 0.10E+00    5.3     1.79425936       -54.4422667291  8.00E-04
   246 Broy./Diag. 0.10E+00    5.3     1.79400818       -54.4430751624 -8.08E-04
   247 Broy./Diag. 0.10E+00    5.3     1.79372773       -54.4422783608  7.97E-04
   248 Broy./Diag. 0.10E+00    5.2     1.79347348       -54.4430848953 -8.07E-04
   249 Broy./Diag. 0.10E+00    5.4     1.79326386       -54.4422892885  7.96E-04
   250 Broy./Diag. 0.10E+00    5.3     1.79311552       -54.4430944364 -8.05E-04
   251 Broy./Diag. 0.10E+00    5.3     1.79306332       -54.4422987052  7.96E-04
   252 Broy./Diag. 0.10E+00    5.3     1.79308768       -54.4431031302 -8.04E-04
   253 Broy./Diag. 0.10E+00    5.3     1.79322710       -54.4423061150  7.97E-04
   254 Broy./Diag. 0.10E+00    5.3     1.79343108       -54.4431109170 -8.05E-04
   255 Broy./Diag. 0.10E+00    5.3     1.79371483       -54.4423115057  7.99E-04
   256 Broy./Diag. 0.10E+00    5.3     1.79401002       -54.4431178446 -8.06E-04
   257 Broy./Diag. 0.10E+00    5.3     1.79428986       -54.4423152090  8.03E-04
   258 Broy./Diag. 0.10E+00    5.3     1.79450391       -54.4431244453 -8.09E-04
   259 Broy./Diag. 0.10E+00    5.3     1.79460247       -54.4423185937  8.06E-04
   260 Broy./Diag. 0.10E+00    5.4     1.79459949       -54.4431317640 -8.13E-04
   261 Broy./Diag. 0.10E+00    5.3     1.79446246       -54.4423233518  8.08E-04
   262 Broy./Diag. 0.10E+00    5.3     1.79426283       -54.4431407350 -8.17E-04
   263 Broy./Diag. 0.10E+00    5.3     1.79399321       -54.4423303037  8.10E-04
   264 Broy./Diag. 0.10E+00    5.3     1.79372534       -54.4431507159 -8.20E-04
   265 Broy./Diag. 0.10E+00    5.3     1.79346857       -54.4423381457  8.13E-04
   266 Broy./Diag. 0.10E+00    5.3     1.79325932       -54.4431601485 -8.22E-04
   267 Broy./Diag. 0.10E+00    5.3     1.79312426       -54.4423457891  8.14E-04
   268 Broy./Diag. 0.10E+00    5.3     1.79306098       -54.4431681823 -8.22E-04
   269 Broy./Diag. 0.10E+00    5.3     1.79310883       -54.4423525120  8.16E-04
   270 Broy./Diag. 0.10E+00    5.3     1.79323115       -54.4431744820 -8.22E-04
   271 Broy./Diag. 0.10E+00    5.3     1.79345834       -54.4423580352  8.16E-04
   272 Broy./Diag. 0.10E+00    5.3     1.79372703       -54.4431788578 -8.21E-04
   273 Broy./Diag. 0.10E+00    5.3     1.79403236       -54.4423626246  8.16E-04
   274 Broy./Diag. 0.10E+00    5.3     1.79430759       -54.4431818540 -8.19E-04
   275 Broy./Diag. 0.10E+00    5.2     1.79451096       -54.4423669062  8.15E-04
   276 Broy./Diag. 0.10E+00    5.3     1.79461948       -54.4431845595 -8.18E-04
   277 Broy./Diag. 0.10E+00    5.3     1.79459115       -54.4423722114  8.12E-04
   278 Broy./Diag. 0.10E+00    5.3     1.79447325       -54.4431886504 -8.16E-04
   279 Broy./Diag. 0.10E+00    5.3     1.79424972       -54.4423793891  8.09E-04
   280 Broy./Diag. 0.10E+00    5.3     1.79399696       -54.4431946905 -8.15E-04
   281 Broy./Diag. 0.10E+00    5.3     1.79371851       -54.4423876683  8.07E-04
   282 Broy./Diag. 0.10E+00    5.3     1.79346803       -54.4432016127 -8.14E-04
   283 Broy./Diag. 0.10E+00    5.4     1.79326470       -54.4423955231  8.06E-04
   284 Broy./Diag. 0.10E+00    5.3     1.79312348       -54.4432082828 -8.13E-04
   285 Broy./Diag. 0.10E+00    5.3     1.79307962       -54.4424020479  8.06E-04
   286 Broy./Diag. 0.10E+00    5.3     1.79311226       -54.4432140658 -8.12E-04
   287 Broy./Diag. 0.10E+00    5.3     1.79325929       -54.4424068153  8.07E-04
   288 Broy./Diag. 0.10E+00    5.3     1.79346924       -54.4432187877 -8.12E-04
   289 Broy./Diag. 0.10E+00    5.3     1.79375575       -54.4424097195  8.09E-04
   290 Broy./Diag. 0.10E+00    5.3     1.79405038       -54.4432225259 -8.13E-04
   291 Broy./Diag. 0.10E+00    5.3     1.79432511       -54.4424112560  8.11E-04
   292 Broy./Diag. 0.10E+00    5.3     1.79453116       -54.4432259708 -8.15E-04
   293 Broy./Diag. 0.10E+00    5.3     1.79461959       -54.4424127684  8.13E-04
   294 Broy./Diag. 0.10E+00    5.3     1.79460674       -54.4432303520 -8.18E-04
   295 Broy./Diag. 0.10E+00    5.2     1.79446210       -54.4424159047  8.14E-04
   296 Broy./Diag. 0.10E+00    5.3     1.79425731       -54.4432365145 -8.21E-04
   297 Broy./Diag. 0.10E+00    5.3     1.79398651       -54.4424210880  8.15E-04
   298 Broy./Diag. 0.10E+00    5.3     1.79371954       -54.4432437158 -8.23E-04
   299 Broy./Diag. 0.10E+00    5.3     1.79346692       -54.4424270815  8.17E-04
   300 Broy./Diag. 0.10E+00    5.3     1.79326295       -54.4432505344 -8.23E-04
   301 Broy./Diag. 0.10E+00    5.3     1.79313516       -54.4424327314  8.18E-04
   302 Broy./Diag. 0.10E+00    5.3     1.79307961       -54.4432561749 -8.23E-04
   303 Broy./Diag. 0.10E+00    5.4     1.79313564       -54.4424373487  8.19E-04
   304 Broy./Diag. 0.10E+00    5.3     1.79326548       -54.4432601663 -8.23E-04
   305 Broy./Diag. 0.10E+00    5.3     1.79349823       -54.4424407746  8.19E-04
   306 Broy./Diag. 0.10E+00    5.3     1.79377015       -54.4432625149 -8.22E-04
   307 Broy./Diag. 0.10E+00    5.2     1.79407431       -54.4424431019  8.19E-04
   308 Broy./Diag. 0.10E+00    5.3     1.79434517       -54.4432636484 -8.21E-04
   309 Broy./Diag. 0.10E+00    5.3     1.79454002       -54.4424451901  8.18E-04
   310 Broy./Diag. 0.10E+00    5.3     1.79463885       -54.4432647102 -8.20E-04
   311 Broy./Diag. 0.10E+00    5.3     1.79460062       -54.4424483404  8.16E-04
   312 Broy./Diag. 0.10E+00    5.3     1.79447480       -54.4432673259 -8.19E-04
   313 Broy./Diag. 0.10E+00    5.3     1.79424649       -54.4424534863  8.14E-04
   314 Broy./Diag. 0.10E+00    5.3     1.79399168       -54.4432718659 -8.18E-04
   315 Broy./Diag. 0.10E+00    5.2     1.79371463       -54.4424598448  8.12E-04
   316 Broy./Diag. 0.10E+00    5.3     1.79346733       -54.4432772361 -8.17E-04
   317 Broy./Diag. 0.10E+00    5.3     1.79326968       -54.4424658846  8.11E-04
   318 Broy./Diag. 0.10E+00    5.3     1.79313503       -54.4432821552 -8.16E-04
   319 Broy./Diag. 0.10E+00    5.3     1.79309902       -54.4424706345  8.12E-04
   320 Broy./Diag. 0.10E+00    5.3     1.79313954       -54.4432861528 -8.16E-04
   321 Broy./Diag. 0.10E+00    5.3     1.79329387       -54.4424737796  8.12E-04
   322 Broy./Diag. 0.10E+00    5.3     1.79350961       -54.4432889988 -8.15E-04
   323 Broy./Diag. 0.10E+00    5.3     1.79379879       -54.4424752422  8.14E-04
   324 Broy./Diag. 0.10E+00    5.3     1.79409292       -54.4432908219 -8.16E-04
   325 Broy./Diag. 0.10E+00    5.3     1.79436263       -54.4424755170  8.15E-04
   326 Broy./Diag. 0.10E+00    5.4     1.79456088       -54.4432923592 -8.17E-04
   327 Broy./Diag. 0.10E+00    5.2     1.79463934       -54.4424759378  8.16E-04
   328 Broy./Diag. 0.10E+00    5.2     1.79461683       -54.4432949164 -8.19E-04
   329 Broy./Diag. 0.10E+00    5.3     1.79446459       -54.4424780753  8.17E-04
   330 Broy./Diag. 0.10E+00    5.3     1.79425461       -54.4432993172 -8.21E-04
   331 Broy./Diag. 0.10E+00    5.2     1.79398237       -54.4424822572  8.17E-04
   332 Broy./Diag. 0.10E+00    5.3     1.79371606       -54.4433048581 -8.23E-04
   333 Broy./Diag. 0.10E+00    5.3     1.79346718       -54.4424871841  8.18E-04
   334 Broy./Diag. 0.10E+00    5.3     1.79326816       -54.4433101060 -8.23E-04
   335 Broy./Diag. 0.10E+00    5.3     1.79314731       -54.4424915829  8.19E-04
   336 Broy./Diag. 0.10E+00    5.3     1.79309918       -54.4433141567 -8.23E-04
   337 Broy./Diag. 0.10E+00    5.4     1.79316308       -54.4424948985  8.19E-04
   338 Broy./Diag. 0.10E+00    5.3     1.79330019       -54.4433167489 -8.22E-04
   339 Broy./Diag. 0.10E+00    5.2     1.79353828       -54.4424969395  8.20E-04
   340 Broy./Diag. 0.10E+00    5.3     1.79381324       -54.4433178155 -8.21E-04
   341 Broy./Diag. 0.10E+00    5.2     1.79411615       -54.4424978985  8.20E-04
   342 Broy./Diag. 0.10E+00    5.3     1.79438260       -54.4433177983 -8.20E-04
   343 Broy./Diag. 0.10E+00    5.3     1.79456903       -54.4424985767  8.19E-04
   344 Broy./Diag. 0.10E+00    5.2     1.79465830       -54.4433178911 -8.19E-04
   345 Broy./Diag. 0.10E+00    5.3     1.79461037       -54.4425004544  8.17E-04
   346 Broy./Diag. 0.10E+00    5.3     1.79447678       -54.4433196405 -8.19E-04
   347 Broy./Diag. 0.10E+00    5.3     1.79424380       -54.4425043905  8.15E-04
   348 Broy./Diag. 0.10E+00    5.2     1.79398694       -54.4433232990 -8.19E-04
   349 Broy./Diag. 0.10E+00    5.3     1.79371119       -54.4425095523  8.14E-04
   350 Broy./Diag. 0.10E+00    5.3     1.79346693       -54.4433276727 -8.18E-04
   351 Broy./Diag. 0.10E+00    5.3     1.79327471       -54.4425144352  8.13E-04
   352 Broy./Diag. 0.10E+00    5.3     1.79314642       -54.4433315494 -8.17E-04
   353 Broy./Diag. 0.10E+00    5.3     1.79311805       -54.4425180731  8.13E-04
   354 Broy./Diag. 0.10E+00    5.3     1.79316624       -54.4433343319 -8.16E-04
   355 Broy./Diag. 0.10E+00    5.3     1.79332764       -54.4425201362  8.14E-04
[...]
   417 Broy./Diag. 0.10E+00    5.3     1.79369933       -54.4425705671  8.12E-04
   418 Broy./Diag. 0.10E+00    5.3     1.79346126       -54.4433853838 -8.15E-04
   419 Broy./Diag. 0.10E+00    5.3     1.79327987       -54.4425741331  8.11E-04
   420 Broy./Diag. 0.10E+00    5.3     1.79316415       -54.4433880278 -8.14E-04
   421 Broy./Diag. 0.10E+00    5.2     1.79315066       -54.4425765146  8.12E-04
   422 Broy./Diag. 0.10E+00    5.3     1.79321376       -54.4433895071 -8.13E-04
   423 Broy./Diag. 0.10E+00    5.3     1.79338861       -54.4425774061  8.12E-04
   424 Broy./Diag. 0.10E+00    5.3     1.79362034       -54.4433897201 -8.12E-04
   425 Broy./Diag. 0.10E+00    5.3     1.79391596       -54.4425768553  8.13E-04
   426 Broy./Diag. 0.10E+00    5.3     1.79420732       -54.4433888923 -8.12E-04
   427 Broy./Diag. 0.10E+00    5.3     1.79446103       -54.4425754096  8.13E-04
   428 Broy./Diag. 0.10E+00    5.3     1.79463577       -54.4433878459 -8.12E-04
   429 Broy./Diag. 0.10E+00    5.3     1.79468493       -54.4425744305  8.13E-04
   430 Broy./Diag. 0.10E+00    5.3     1.79463472       -54.4433880041 -8.14E-04
   431 Broy./Diag. 0.10E+00    5.3     1.79446104       -54.4425754097  8.13E-04
   432 Broy./Diag. 0.10E+00    5.4     1.79423692       -54.4433901547 -8.15E-04
   433 Broy./Diag. 0.10E+00    5.3     1.79396113       -54.4425783198  8.12E-04
   434 Broy./Diag. 0.10E+00    5.3     1.79369737       -54.4433934654 -8.15E-04
   435 Broy./Diag. 0.10E+00    5.3     1.79345966       -54.4425817506  8.12E-04
   436 Broy./Diag. 0.10E+00    5.3     1.79327532       -54.4433965175 -8.15E-04
   437 Broy./Diag. 0.10E+00    5.3     1.79317458       -54.4425844613  8.12E-04
   438 Broy./Diag. 0.10E+00    5.3     1.79314804       -54.4433984643 -8.14E-04
   439 Broy./Diag. 0.10E+00    5.3     1.79323450       -54.4425859156  8.13E-04
   440 Broy./Diag. 0.10E+00    5.3     1.79339222       -54.4433990230 -8.13E-04
   441 Broy./Diag. 0.10E+00    5.3     1.79364490       -54.4425859934  8.13E-04
   442 Broy./Diag. 0.10E+00    5.3     1.79392741       -54.4433982433 -8.12E-04
   443 Broy./Diag. 0.10E+00    5.3     1.79422521       -54.4425849638  8.13E-04
   444 Broy./Diag. 0.10E+00    5.3     1.79447737       -54.4433966372 -8.12E-04
   445 Broy./Diag. 0.10E+00    5.3     1.79463844       -54.4425837460  8.13E-04
   446 Broy./Diag. 0.10E+00    5.3     1.79469958       -54.4433954563 -8.12E-04
   447 Broy./Diag. 0.10E+00    5.3     1.79462405       -54.4425839137  8.12E-04
   448 Broy./Diag. 0.10E+00    5.3     1.79446874       -54.4433960973 -8.12E-04
   449 Broy./Diag. 0.10E+00    5.3     1.79422332       -54.4425862284  8.10E-04
   450 Broy./Diag. 0.10E+00    5.3     1.79396145       -54.4433985431 -8.12E-04
   451 Broy./Diag. 0.10E+00    5.3     1.79369033       -54.4425897245  8.09E-04
   452 Broy./Diag. 0.10E+00    5.2     1.79345551       -54.4434014929 -8.12E-04
   453 Broy./Diag. 0.10E+00    5.3     1.79327957       -54.4425929051  8.09E-04
   454 Broy./Diag. 0.10E+00    5.3     1.79317013       -54.4434037701 -8.11E-04
   455 Broy./Diag. 0.10E+00    5.3     1.79316396       -54.4425949086  8.09E-04
   456 Broy./Diag. 0.10E+00    5.4     1.79323434       -54.4434048595 -8.10E-04
   457 Broy./Diag. 0.10E+00    5.3     1.79341562       -54.4425954479  8.09E-04
   458 Broy./Diag. 0.10E+00    5.3     1.79365222       -54.4434046631 -8.09E-04
   459 Broy./Diag. 0.10E+00    5.3     1.79394942       -54.4425945763  8.10E-04
   460 Broy./Diag. 0.10E+00    5.2     1.79423935       -54.4434034232 -8.09E-04
   461 Broy./Diag. 0.10E+00    5.2     1.79448737       -54.4425928702  8.11E-04
   462 Broy./Diag. 0.10E+00    5.3     1.79465418       -54.4434020075 -8.09E-04
   463 Broy./Diag. 0.10E+00    5.3     1.79469380       -54.4425917246  8.10E-04
   464 Broy./Diag. 0.10E+00    5.3     1.79463482       -54.4434018632 -8.10E-04
   465 Broy./Diag. 0.10E+00    5.3     1.79445456       -54.4425925821  8.09E-04
   466 Broy./Diag. 0.10E+00    5.3     1.79422630       -54.4434037212 -8.11E-04
   467 Broy./Diag. 0.10E+00    5.3     1.79394975       -54.4425953187  8.08E-04
   468 Broy./Diag. 0.10E+00    5.3     1.79368716       -54.4434066973 -8.11E-04
   469 Broy./Diag. 0.10E+00    5.3     1.79345333       -54.4425985001  8.08E-04
   470 Broy./Diag. 0.10E+00    5.3     1.79327397       -54.4434093939 -8.11E-04
   471 Broy./Diag. 0.10E+00    5.3     1.79317989       -54.4426009182  8.08E-04
   472 Broy./Diag. 0.10E+00    5.4     1.79316043       -54.4434109891 -8.10E-04
   473 Broy./Diag. 0.10E+00    5.3     1.79325414       -54.4426020528  8.09E-04
   474 Broy./Diag. 0.10E+00    5.3     1.79341837       -54.4434112145 -8.09E-04
   475 Broy./Diag. 0.10E+00    5.3     1.79367543       -54.4426018073  8.09E-04
   476 Broy./Diag. 0.10E+00    5.4     1.79395992       -54.4434101341 -8.08E-04
   477 Broy./Diag. 0.10E+00    5.3     1.79425552       -54.4426004536  8.10E-04
   478 Broy./Diag. 0.10E+00    5.3     1.79450254       -54.4434082823 -8.08E-04
   479 Broy./Diag. 0.10E+00    5.2     1.79465511       -54.4425989684  8.09E-04
   480 Broy./Diag. 0.10E+00    5.3     1.79470708       -54.4434069402 -8.08E-04
   481 Broy./Diag. 0.10E+00    5.3     1.79462287       -54.4425989227  8.08E-04
   482 Broy./Diag. 0.10E+00    5.3     1.79446088       -54.4434074556 -8.09E-04
   483 Broy./Diag. 0.10E+00    5.3     1.79421189       -54.4426010332  8.06E-04
   484 Broy./Diag. 0.10E+00    5.2     1.79394881       -54.4434097400 -8.09E-04
   485 Broy./Diag. 0.10E+00    5.3     1.79367954       -54.4426042749  8.05E-04
   486 Broy./Diag. 0.10E+00    5.3     1.79344807       -54.4434124572 -8.08E-04
   487 Broy./Diag. 0.10E+00    5.3     1.79327763       -54.4426071707  8.05E-04
   488 Broy./Diag. 0.10E+00    5.3     1.79317447       -54.4434144593 -8.07E-04
   489 Broy./Diag. 0.10E+00    5.3     1.79317555       -54.4426088909  8.06E-04
   490 Broy./Diag. 0.10E+00    5.3     1.79325312       -54.4434152526 -8.06E-04
   491 Broy./Diag. 0.10E+00    5.2     1.79344064       -54.4426091615  8.06E-04
   492 Broy./Diag. 0.10E+00    5.3     1.79368188       -54.4434147491 -8.06E-04
   493 Broy./Diag. 0.10E+00    5.2     1.79398040       -54.4426080478  8.07E-04
   494 Broy./Diag. 0.10E+00    5.3     1.79426866       -54.4434132128 -8.05E-04
   495 Broy./Diag. 0.10E+00    5.3     1.79451081       -54.4426061587  8.07E-04
   496 Broy./Diag. 0.10E+00    5.3     1.79466965       -54.4434115450 -8.05E-04
   497 Broy./Diag. 0.10E+00    5.4     1.79469985       -54.4426049041  8.07E-04
   498 Broy./Diag. 0.10E+00    5.3     1.79463235       -54.4434111993 -8.06E-04
   499 Broy./Diag. 0.10E+00    5.3     1.79444580       -54.4426056913  8.06E-04
   500 Broy./Diag. 0.10E+00    5.2     1.79421367       -54.4434128695 -8.07E-04

  Leaving inner SCF loop after reaching   500 steps.


  Electronic density on regular grids:         -6.1225548872        1.8774451128
  Core density on regular grids:                1.0000000000       -7.0000000000
  Hard and soft densities (Lebedev):          -10.3966859324       -8.5192403465
  Total Rho_soft + Rho1_hard - Rho1_soft       -8.0000004731
  Total charge density (r-space):              -7.0000004731
  Total Rho_soft + Rho0_soft (g-space):        -0.0000004865

  Overlap energy of the core charge distribution:               0.00000008866015
  Self energy of the core charge distribution:                -49.21005070205399
  Core Hamiltonian energy:                                     -6.80329469346416
  Hartree energy:                                              18.01563589895435
  Exchange-correlation energy:                                 -2.77476502778954

  GAPW| Exc from hard and soft atomic rho1:                    -4.16546600151353
  GAPW| local Eh = 1 center integrals:                         -9.50547243231544

  Total energy:                                               -54.44341286952218

 *******************************************************************************
 *   ___                                                                       *
 *  /   \                                                                      *
 * [ABORT]                                                                     *
 *  \___/     SCF run NOT converged. To continue the calculation regardless,   *
 *    |             please set the keyword IGNORE_CONVERGENCE_FAILURE.         *
 *  O/|                                                                        *
 * /| |                                                                        *
 * / \                                                            qs_scf.F:611 *
 *******************************************************************************


 ===== Routine Calling Stack ===== 

            3 scf_env_do_scf
            2 qs_energies
            1 CP2K

 *******************************************************************************
 *   ___                                                                       *
 *  /   \                                                                      *
 * [ABORT]                                                                     *
 *  \___/     SCF run NOT converged. To continue the calculation regardless,   *
 *    |             please set the keyword IGNORE_CONVERGENCE_FAILURE.         *
 *  O/|                                                                        *
 * /| |                                                                        *
 * / \                                                            qs_scf.F:611 *
 *******************************************************************************


 ===== Routine Calling Stack ===== 

            3 scf_env_do_scf
            2 qs_energies
            1 CP2K

 *******************************************************************************
 *   ___                                                                       *
 *  /   \                                                                      *
 * [ABORT]                                                                     *
 *  \___/     SCF run NOT converged. To continue the calculation regardless,   *
 *    |             please set the keyword IGNORE_CONVERGENCE_FAILURE.         *
 *  O/|                                                                        *
 * /| |                                                                        *
 * / \                                                            qs_scf.F:611 *
 *******************************************************************************


 ===== Routine Calling Stack ===== 

            3 scf_env_do_scf
            2 qs_energies
            1 CP2K

 *******************************************************************************
 *   ___                                                                       *
 *  /   \                                                                      *
 * [ABORT]                                                                     *
 *  \___/     SCF run NOT converged. To continue the calculation regardless,   *
 *    |             please set the keyword IGNORE_CONVERGENCE_FAILURE.         *
 *  O/|                                                                        *
 * /| |                                                                        *
 * / \                                                            qs_scf.F:611 *
 *******************************************************************************


 ===== Routine Calling Stack ===== 

            3 scf_env_do_scf
            2 qs_energies
            1 CP2K

 *******************************************************************************
 *   ___                                                                       *
 *  /   \                                                                      *
 * [ABORT]                                                                     *
 *  \___/     SCF run NOT converged. To continue the calculation regardless,   *
 *    |             please set the keyword IGNORE_CONVERGENCE_FAILURE.         *
 *  O/|                                                                        *
 * /| |                                                                        *
 * / \                                                            qs_scf.F:611 *
 *******************************************************************************


 ===== Routine Calling Stack ===== 

            3 scf_env_do_scf
            2 qs_energies
            1 CP2K

 *******************************************************************************
 *   ___                                                                       *
 *  /   \                                                                      *
 * [ABORT]                                                                     *
 *  \___/     SCF run NOT converged. To continue the calculation regardless,   *
 *    |             please set the keyword IGNORE_CONVERGENCE_FAILURE.         *
 *  O/|                                                                        *
 * /| |                                                                        *
 * / \                                                            qs_scf.F:611 *
 *******************************************************************************


 ===== Routine Calling Stack ===== 

            3 scf_env_do_scf
            2 qs_energies
            1 CP2K

 *******************************************************************************
 *   ___                                                                       *
 *  /   \                                                                      *
 * [ABORT]                                                                     *
 *  \___/     SCF run NOT converged. To continue the calculation regardless,   *
 *    |             please set the keyword IGNORE_CONVERGENCE_FAILURE.         *
 *  O/|                                                                        *
 * /| |                                                                        *
 * / \                                                            qs_scf.F:611 *
 *******************************************************************************


 ===== Routine Calling Stack ===== 

            3 scf_env_do_scf
            2 qs_energies
            1 CP2K

 *******************************************************************************
 *   ___                                                                       *
 *  /   \                                                                      *
 * [ABORT]                                                                     *
 *  \___/     SCF run NOT converged. To continue the calculation regardless,   *
 *    |             please set the keyword IGNORE_CONVERGENCE_FAILURE.         *
 *  O/|                                                                        *
 * /| |                                                                        *
 * / \                                                            qs_scf.F:611 *
 *******************************************************************************


 ===== Routine Calling Stack ===== 

            3 scf_env_do_scf
            2 qs_energies
            1 CP2K

 *******************************************************************************
 *   ___                                                                       *
 *  /   \                                                                      *
 * [ABORT]                                                                     *
 *  \___/     SCF run NOT converged. To continue the calculation regardless,   *
 *    |             please set the keyword IGNORE_CONVERGENCE_FAILURE.         *
 *  O/|                                                                        *
 * /| |                                                                        *
 * / \                                                            qs_scf.F:611 *
 *******************************************************************************


 ===== Routine Calling Stack ===== 

            3 scf_env_do_scf
            2 qs_energies
            1 CP2K

 *******************************************************************************
 *   ___                                                                       *
 *  /   \                                                                      *
 * [ABORT]                                                                     *
 *  \___/     SCF run NOT converged. To continue the calculation regardless,   *
 *    |             please set the keyword IGNORE_CONVERGENCE_FAILURE.         *
 *  O/|                                                                        *
 * /| |                                                                        *
 * / \                                                            qs_scf.F:611 *
 *******************************************************************************


 ===== Routine Calling Stack ===== 

            3 scf_env_do_scf
            2 qs_energies
            1 CP2K

 *******************************************************************************
 *   ___                                                                       *
 *  /   \                                                                      *
 * [ABORT]                                                                     *
 *  \___/     SCF run NOT converged. To continue the calculation regardless,   *
 *    |             please set the keyword IGNORE_CONVERGENCE_FAILURE.         *
 *  O/|                                                                        *
 * /| |                                                                        *
 * / \                                                            qs_scf.F:611 *
 *******************************************************************************


 ===== Routine Calling Stack ===== 

            3 scf_env_do_scf
            2 qs_energies
            1 CP2K

 *******************************************************************************
 *   ___                                                                       *
 *  /   \                                                                      *
 * [ABORT]                                                                     *
 *  \___/     SCF run NOT converged. To continue the calculation regardless,   *
 *    |             please set the keyword IGNORE_CONVERGENCE_FAILURE.         *
 *  O/|                                                                        *
 * /| |                                                                        *
 * / \                                                            qs_scf.F:611 *
 *******************************************************************************


 ===== Routine Calling Stack ===== 

            3 scf_env_do_scf
            2 qs_energies
            1 CP2K

 *******************************************************************************
 *   ___                                                                       *
 *  /   \                                                                      *
 * [ABORT]                                                                     *
 *  \___/     SCF run NOT converged. To continue the calculation regardless,   *
 *    |             please set the keyword IGNORE_CONVERGENCE_FAILURE.         *
 *  O/|                                                                        *
 * /| |                                                                        *
 * / \                                                            qs_scf.F:611 *
 *******************************************************************************


 ===== Routine Calling Stack ===== 

            3 scf_env_do_scf
            2 qs_energies
            1 CP2K
