 DBCSR| CPU Multiplication driver                                           BLAS (U)
 DBCSR| Multrec recursion limit                                              512 (U)
 DBCSR| Multiplication stack size                                           1000 (D)
 DBCSR| Maximum elements for images                                    UNLIMITED (U)
 DBCSR| Multiplicative factor virtual images                                   1 (U)
 DBCSR| Use multiplication densification                                       T (D)
 DBCSR| Multiplication size stacks                                             3 (U)
 DBCSR| Use memory pool for CPU allocation                                     F (U)
 DBCSR| Number of 3D layers                                               SINGLE (U)
 DBCSR| Use MPI memory allocation                                              F (U)
 DBCSR| Use RMA algorithm                                                      F (U)
 DBCSR| Use Communication thread                                               T (U)
 DBCSR| Communication thread load                                             75 (D)
 DBCSR| MPI: My process id                                                     0
 DBCSR| MPI: Number of processes                                              24
 DBCSR| OMP: Current number of threads                                         4
 DBCSR| OMP: Max number of threads                                             4
 DBCSR| Split modifier for TAS multiplication algorithm                  1.0E+00 (U)


  **** **** ******  **  PROGRAM STARTED AT               2025-03-03 00:18:10.788
 ***** ** ***  *** **   PROGRAM STARTED ON                          i02r02c04s03
 **    ****   ******    PROGRAM STARTED BY                               di38fab
 ***** **    ** ** **   PROGRAM PROCESS ID                                841847
  **** **  *******  **  PROGRAM STARTED IN /hppfs/scratch/04/di38fab/05_MOL/W4-1
                                           1+ALK/c2/SZVSR

 CP2K| version string:                 CP2K version 2025.1 (Development Version)
 CP2K| source code revision number:                                  git:47877ba
 CP2K| cp2kflags: omp libint fftw3 libxc parallel scalapack max_contr=4         
 CP2K| is freely available from                            https://www.cp2k.org/
 CP2K| Program compiled at                          Thu Feb 20 16:00:34 CET 2025
 CP2K| Program compiled on                                               login04
 CP2K| Program compiled for                                        Supermuc-foss
 CP2K| Data directory path          /hppfs/work/pn36zo/di38fab/newcp2k/cp2k/data
 CP2K| Input file name                                                    GW.inp

 GLOBAL| Force Environment number                                              1
 GLOBAL| Basis set file name            /hppfs/scratch/04/di38fab/04_TMD/BASIS_A
 GLOBAL| Potential file name            /hppfs/work/pn36zo/di38fab/cp2k/data/ALL
 GLOBAL| MM Potential file name                                     MM_POTENTIAL
 GLOBAL| Coordinate file name                                      __STD_INPUT__
 GLOBAL| Method name                                                        CP2K
 GLOBAL| Project name                                                       MoS2
 GLOBAL| Run type                                                         ENERGY
 GLOBAL| FFT library                                                       FFTW3
 GLOBAL| Diagonalization library                                       ScaLAPACK
 GLOBAL| DGEMM library                                                      BLAS
 GLOBAL| Orthonormality check for eigenvectors                          DISABLED
 GLOBAL| Matrix multiplication library                                 ScaLAPACK
 GLOBAL| All-to-all communication in single precision                          F
 GLOBAL| FFTs using library dependent lengths                                  F
 GLOBAL| Grid backend                                                       AUTO
 GLOBAL| Global print level                                               MEDIUM
 GLOBAL| MPI I/O enabled                                                       T
 GLOBAL| Total number of message passing processes                            24
 GLOBAL| Number of threads for this process                                    4
 GLOBAL| This output is from process                                           0
 GLOBAL| OpenMP stack size per thread (OMP_STACKSIZE)                    default
 GLOBAL| CPU model name             Intel(R) Xeon(R) Platinum 8174 CPU @ 3.10GHz

 MEMORY| system memory details [Kb]
 MEMORY|                        rank 0           min           max       average
 MEMORY| MemTotal             98436660      98436660      98436660      98436660
 MEMORY| MemFree              84030172      84030172      84049848      84040010
 MEMORY| Buffers                     0             0             0             0
 MEMORY| Cached                2426396       2426396       2434696       2430546
 MEMORY| Slab                  1228744       1228744       1231936       1230340
 MEMORY| SReclaimable           267380        263892        267380        265636
 MEMORY| MemLikelyFree        86723948      86723948      86748436      86736192


 *** Fundamental physical constants (SI units) ***

 *** Literature: B. J. Mohr and B. N. Taylor,
 ***             CODATA recommended values of the fundamental physical
 ***             constants: 2006, Web Version 5.1
 ***             http://physics.nist.gov/constants

 Speed of light in vacuum [m/s]                             2.99792458000000E+08
 Magnetic constant or permeability of vacuum [N/A**2]       1.25663706143592E-06
 Electric constant or permittivity of vacuum [F/m]          8.85418781762039E-12
 Planck constant (h) [J*s]                                  6.62606896000000E-34
 Planck constant (h-bar) [J*s]                              1.05457162825177E-34
 Elementary charge [C]                                      1.60217648700000E-19
 Electron mass [kg]                                         9.10938215000000E-31
 Electron g factor [ ]                                     -2.00231930436220E+00
 Proton mass [kg]                                           1.67262163700000E-27
 Fine-structure constant                                    7.29735253760000E-03
 Rydberg constant [1/m]                                     1.09737315685270E+07
 Avogadro constant [1/mol]                                  6.02214179000000E+23
 Boltzmann constant [J/K]                                   1.38065040000000E-23
 Atomic mass unit [kg]                                      1.66053878200000E-27
 Bohr radius [m]                                            5.29177208590000E-11

 *** Conversion factors ***

 [u] -> [a.u.]                                              1.82288848426455E+03
 [Angstrom] -> [Bohr] = [a.u.]                              1.88972613288564E+00
 [a.u.] = [Bohr] -> [Angstrom]                              5.29177208590000E-01
 [a.u.] -> [s]                                              2.41888432650478E-17
 [a.u.] -> [fs]                                             2.41888432650478E-02
 [a.u.] -> [J]                                              4.35974393937059E-18
 [a.u.] -> [N]                                              8.23872205491840E-08
 [a.u.] -> [K]                                              3.15774647902944E+05
 [a.u.] -> [kJ/mol]                                         2.62549961709828E+03
 [a.u.] -> [kcal/mol]                                       6.27509468713739E+02
 [a.u.] -> [Pa]                                             2.94210107994716E+13
 [a.u.] -> [bar]                                            2.94210107994716E+08
 [a.u.] -> [atm]                                            2.90362800883016E+08
 [a.u.] -> [eV]                                             2.72113838565563E+01
 [a.u.] -> [Hz]                                             6.57968392072181E+15
 [a.u.] -> [1/cm] (wave numbers)                            2.19474631370540E+05
 [a.u./Bohr**2] -> [1/cm]                                   5.14048714338585E+03
 

 CELL_TOP| Volume [angstrom^3]:                                     27000.000000
 CELL_TOP| Vector a [angstrom    30.000     0.000     0.000   |a| =    30.000000
 CELL_TOP| Vector b [angstrom     0.000    30.000     0.000   |b| =    30.000000
 CELL_TOP| Vector c [angstrom     0.000     0.000    30.000   |c| =    30.000000
 CELL_TOP| Angle (b,c), alpha [degree]:                                90.000000
 CELL_TOP| Angle (a,c), beta  [degree]:                                90.000000
 CELL_TOP| Angle (a,b), gamma [degree]:                                90.000000
 CELL_TOP| Numerically orthorhombic:                                         YES
 CELL_TOP| Periodicity                                                      NONE

 GENERATE|  Preliminary Number of Bonds generated:                             0
 GENERATE|  Achieved consistency in connectivity generation.

 CELL| Volume [angstrom^3]:                                         27000.000000
 CELL| Vector a [angstrom]:      30.000     0.000     0.000   |a| =    30.000000
 CELL| Vector b [angstrom]:       0.000    30.000     0.000   |b| =    30.000000
 CELL| Vector c [angstrom]:       0.000     0.000    30.000   |c| =    30.000000
 CELL| Angle (b,c), alpha [degree]:                                    90.000000
 CELL| Angle (a,c), beta  [degree]:                                    90.000000
 CELL| Angle (a,b), gamma [degree]:                                    90.000000
 CELL| Numerically orthorhombic:                                             YES
 CELL| Periodicity                                                          NONE

 CELL_REF| Volume [angstrom^3]:                                     27000.000000
 CELL_REF| Vector a [angstrom    30.000     0.000     0.000   |a| =    30.000000
 CELL_REF| Vector b [angstrom     0.000    30.000     0.000   |b| =    30.000000
 CELL_REF| Vector c [angstrom     0.000     0.000    30.000   |c| =    30.000000
 CELL_REF| Angle (b,c), alpha [degree]:                                90.000000
 CELL_REF| Angle (a,c), beta  [degree]:                                90.000000
 CELL_REF| Angle (a,b), gamma [degree]:                                90.000000
 CELL_REF| Numerically orthorhombic:                                         YES
 CELL_REF| Periodicity                                                      NONE

 *******************************************************************************
 *******************************************************************************
 **                                                                           **
 **     #####                         ##              ##                      **
 **    ##   ##            ##          ##              ##                      **
 **   ##     ##                       ##            ######                    **
 **   ##     ##  ##   ##  ##   #####  ##  ##   ####   ##    #####    #####    **
 **   ##     ##  ##   ##  ##  ##      ## ##   ##      ##   ##   ##  ##   ##   **
 **   ##  ## ##  ##   ##  ##  ##      ####     ###    ##   ######   ######    **
 **    ##  ###   ##   ##  ##  ##      ## ##      ##   ##   ##       ##        **
 **     #######   #####   ##   #####  ##  ##  ####    ##    #####   ##        **
 **           ##                                                    ##        **
 **                                                                           **
 **                                                ... make the atoms dance   **
 **                                                                           **
 **            Copyright (C) by CP2K developers group (2000-2025)             **
 **                      J. Chem. Phys. 152, 194103 (2020)                    **
 **                                                                           **
 *******************************************************************************

 DFT| Spin restricted Kohn-Sham (RKS) calculation                            RKS
 DFT| Multiplicity                                                             1
 DFT| Number of spin states                                                    1
 DFT| Charge                                                                   0
 DFT| Self-interaction correction (SIC)                                       NO
 DFT| Cutoffs: density                                              1.000000E-10
 DFT|          gradient                                             1.000000E-10
 DFT|          tau                                                  1.000000E-10
 DFT|          cutoff_smoothing_range                               0.000000E+00
 DFT| XC density smoothing                                                  NONE
 DFT| XC derivatives                                                          PW

 FUNCTIONAL| PBE:
 FUNCTIONAL| J.P.Perdew, K.Burke, M.Ernzerhof, Phys. Rev. Letter, vol. 77, n 18,
 FUNCTIONAL|  pp. 3865-3868, (1996)sx=0.750sc=1.000{spin unpolarized}           


 QS| Method:                                                                GAPW
 QS| Density plane wave grid type                        NON-SPHERICAL FULLSPACE
 QS| Number of grid levels:                                                    4
 QS| Density cutoff [a.u.]:                                                250.0
 QS| Multi grid cutoff [a.u.]: 1) grid level                               250.0
 QS|                           2) grid level                                83.3
 QS|                           3) grid level                                27.8
 QS|                           4) grid level                                 9.3
 QS| Grid level progression factor:                                          3.0
 QS| Relative density cutoff [a.u.]:                                        50.0
 QS| Interaction thresholds: eps_pgf_orb:                                1.0E-12
 QS|                         eps_filter_matrix:                          0.0E+00
 QS|                         eps_core_charge:                            1.0E-14
 QS|                         eps_rho_gspace:                             1.0E-12
 QS|                         eps_rho_rspace:                             1.0E-12
 QS|                         eps_gvg_rspace:                             1.0E-06
 QS|                         eps_ppl:                                    1.0E-02
 QS|                         eps_ppnl:                                   1.0E-08
 QS| GAPW|      One center basis from orbital basis primitives
 QS| GAPW|                   eps_fit:                                    1.0E-04
 QS| GAPW|                   eps_iso:                                    1.0E-12
 QS| GAPW|                   eps_svd:                                    1.0E-08
 QS| GAPW|                   eps_cpc:                                    1.0E-12
 QS| GAPW|   atom-r-grid: quadrature:                                     GC_LOG
 QS| GAPW|      atom-s-grid:  max l :                                          4
 QS| GAPW|      max_l_rho0 :                                                   2


 ATOMIC KIND INFORMATION

  1. Atomic kind: C                                     Number of atoms:       2

     Orbital Basis Set                                      aug-SZV-MOLOPT-ae-SR

       Number of orbital shell sets:                                           2
       Number of orbital shells:                                               6
       Number of primitive Cartesian functions:                                7
       Number of Cartesian basis functions:                                   15
       Number of spherical basis functions:                                   14
       Norm type:                                                              2

       Normalised Cartesian orbitals:

                        Set   Shell   Orbital            Exponent    Coefficient

                          1       1    2s                0.114559       0.000000
                                                         0.222290       0.161536
                                                         0.683483       0.214036
                                                         2.941249      -0.160017

                          1       2    3s                0.114559       0.078076
                                                         0.222290       0.130402
                                                         0.683483      -0.084834
                                                         2.941249       0.041379

                          1       3    3px               0.114559       0.000000
                                                         0.222290       0.085276
                                                         0.683483       0.538304
                                                         2.941249       0.856045
                          1       3    3py               0.114559       0.000000
                                                         0.222290       0.085276
                                                         0.683483       0.538304
                                                         2.941249       0.856045
                          1       3    3pz               0.114559       0.000000
                                                         0.222290       0.085276
                                                         0.683483       0.538304
                                                         2.941249       0.856045

                          1       4    4px               0.114559       0.224492
                                                         0.222290      -0.546182
                                                         0.683483       0.918493
                                                         2.941249      -0.348342
                          1       4    4py               0.114559       0.224492
                                                         0.222290      -0.546182
                                                         0.683483       0.918493
                                                         2.941249      -0.348342
                          1       4    4pz               0.114559       0.224492
                                                         0.222290      -0.546182
                                                         0.683483       0.918493
                                                         2.941249      -0.348342

                          1       5    4dx2              0.114559       0.004023
                                                         0.222290       0.096934
                                                         0.683483       0.116751
                                                         2.941249       0.357653
                          1       5    4dxy              0.114559       0.006968
                                                         0.222290       0.167895
                                                         0.683483       0.202218
                                                         2.941249       0.619473
                          1       5    4dxz              0.114559       0.006968
                                                         0.222290       0.167895
                                                         0.683483       0.202218
                                                         2.941249       0.619473
                          1       5    4dy2              0.114559       0.004023
                                                         0.222290       0.096934
                                                         0.683483       0.116751
                                                         2.941249       0.357653
                          1       5    4dyz              0.114559       0.006968
                                                         0.222290       0.167895
                                                         0.683483       0.202218
                                                         2.941249       0.619473
                          1       5    4dz2              0.114559       0.004023
                                                         0.222290       0.096934
                                                         0.683483       0.116751
                                                         2.941249       0.357653

                          2       1    1s               71.616837       2.707814
                                                        13.045096       2.618880
                                                         3.530512       0.816191

     RI Auxiliary Basis Set             RI_aug-SZV-MOLOPT-ae-SR_N_RI_029_s_p_d_f

       Number of orbital shell sets:                                          11
       Number of orbital shells:                                              11
       Number of primitive Cartesian functions:                               11
       Number of Cartesian basis functions:                                   33
       Number of spherical basis functions:                                   29
       Norm type:                                                              2

       Normalised Cartesian orbitals:

                        Set   Shell   Orbital            Exponent    Coefficient

                          1       1    1s                0.275993       0.271384

                          2       1   10dx2              0.587304       0.648514
                          2       1   10dxy              0.587304       1.123259
                          2       1   10dxz              0.587304       1.123259
                          2       1   10dy2              0.587304       0.648514
                          2       1   10dyz              0.587304       1.123259
                          2       1   10dz2              0.587304       0.648514

                          3       1    6px               0.658795       0.846014
                          3       1    6py               0.658795       0.846014
                          3       1    6pz               0.658795       0.846014

                          4       1   11fx3              1.035652       1.592888
                          4       1   11fx2y             1.035652       3.561805
                          4       1   11fx2z             1.035652       3.561805
                          4       1   11fxy2             1.035652       3.561805
                          4       1   11fxyz             1.035652       6.169228
                          4       1   11fxz2             1.035652       3.561805
                          4       1   11fy3              1.035652       1.592888
                          4       1   11fy2z             1.035652       3.561805
                          4       1   11fyz2             1.035652       3.561805
                          4       1   11fz3              1.035652       1.592888

                          5       1    2s                1.092384       0.761538

                          6       1    7px               2.333195       4.110351
                          6       1    7py               2.333195       4.110351
                          6       1    7pz               2.333195       4.110351

                          7       1    3s                4.901987       2.347952

                          8       1    8px               6.348185      14.363228
                          8       1    8py               6.348185      14.363228
                          8       1    8pz               6.348185      14.363228

                          9       1    9px              17.637872      51.522606
                          9       1    9py              17.637872      51.522606
                          9       1    9pz              17.637872      51.522606

                         10       1    4s               20.273074       6.809258

                         11       1    5s               80.835140      19.213666

       Atomic covalent radius [Angstrom]:                                  0.770

       Atomic van der Waals radius [Angstrom]:                             1.700

     The atoms of this atomic kind are PAW atoms (GAPW):
       Hard Gaussian function radius:                                      1.512
       Rho0 radius:                                                        1.512
       Maximum GTO radius used for PAW projector construction:            24.566

     GAPW Soft Basis Set                               aug-SZV-MOLOPT-ae-SR_soft

       Number of orbital shell sets:                                           2
       Number of orbital shells:                                               6
       Number of primitive Cartesian functions:                                5
       Number of Cartesian basis functions:                                   15
       Number of spherical basis functions:                                   14
       Norm type:                                                              2

       Normalised Cartesian orbitals:

                        Set   Shell   Orbital            Exponent    Coefficient

                          1       1    2s                0.114559       0.000000
                                                         0.222290       0.161536
                                                         0.683483       0.214036
                                                         2.941249      -0.160017

                          1       2    3s                0.114559       0.078076
                                                         0.222290       0.130402
                                                         0.683483      -0.084834
                                                         2.941249       0.041379

                          1       3    3px               0.114559       0.000000
                                                         0.222290       0.085276
                                                         0.683483       0.538304
                                                         2.941249       0.856045
                          1       3    3py               0.114559       0.000000
                                                         0.222290       0.085276
                                                         0.683483       0.538304
                                                         2.941249       0.856045
                          1       3    3pz               0.114559       0.000000
                                                         0.222290       0.085276
                                                         0.683483       0.538304
                                                         2.941249       0.856045

                          1       4    4px               0.114559       0.224492
                                                         0.222290      -0.546182
                                                         0.683483       0.918493
                                                         2.941249      -0.348342
                          1       4    4py               0.114559       0.224492
                                                         0.222290      -0.546182
                                                         0.683483       0.918493
                                                         2.941249      -0.348342
                          1       4    4pz               0.114559       0.224492
                                                         0.222290      -0.546182
                                                         0.683483       0.918493
                                                         2.941249      -0.348342

                          1       5    4dx2              0.114559       0.004023
                                                         0.222290       0.096934
                                                         0.683483       0.116751
                                                         2.941249       0.357653
                          1       5    4dxy              0.114559       0.006968
                                                         0.222290       0.167895
                                                         0.683483       0.202218
                                                         2.941249       0.619473
                          1       5    4dxz              0.114559       0.006968
                                                         0.222290       0.167895
                                                         0.683483       0.202218
                                                         2.941249       0.619473
                          1       5    4dy2              0.114559       0.004023
                                                         0.222290       0.096934
                                                         0.683483       0.116751
                                                         2.941249       0.357653
                          1       5    4dyz              0.114559       0.006968
                                                         0.222290       0.167895
                                                         0.683483       0.202218
                                                         2.941249       0.619473
                          1       5    4dz2              0.114559       0.004023
                                                         0.222290       0.096934
                                                         0.683483       0.116751
                                                         2.941249       0.357653

                          2       1    1s                3.530512       0.816191

     AE Potential information for                                            ALL

       Description:                                       All-electron potential
                                          Krack, Parrinello, PCCP 2, 2105 (2000)

       Gaussian exponent of the core charge distribution:               4.109048
       Electronic configuration (s p d ...):                           4   2   0


 MOLECULE KIND INFORMATION


 All atoms are their own molecule, skipping detailed information


 TOTAL NUMBERS AND MAXIMUM NUMBERS

  Total number of            - Atomic kinds:                                   1
                             - Atoms:                                          2
                             - Shell sets:                                     4
                             - Shells:                                        12
                             - Primitive Cartesian functions:                 14
                             - Cartesian basis functions:                     30
                             - Spherical basis functions:                     28

  Maximum angular momentum of the orbital basis functions:                     2


 MODULE QUICKSTEP: ATOMIC COORDINATES IN ANGSTROM

   Atom Kind Element         X             Y             Z       Z(eff)     Mass
      1    1 C     6     15.620000     15.000000     15.000000   6.0000  12.0107
      2    1 C     6     14.380000     15.000000     15.000000   6.0000  12.0107



 SCF PARAMETERS         Density guess:                                    ATOMIC
                        --------------------------------------------------------
                        max_scf:                                             500
                        max_scf_history:                                       0
                        max_diis:                                              4
                        --------------------------------------------------------
                        eps_scf:                                        1.00E-06
                        eps_scf_history:                                0.00E+00
                        eps_diis:                                       1.00E-01
                        eps_eigval:                                     1.00E-05
                        --------------------------------------------------------
                        level_shift [a.u.]:                             0.000000
                        added MOs                                        22    0
                        --------------------------------------------------------
                        Mixing method:                            BROYDEN_MIXING
                                                charge density mixing in g-space
                        --------------------------------------------------------
                        No outer SCF

 PW_GRID| Information for grid number                                          1
 PW_GRID| Grid distributed over                                    24 processors
 PW_GRID| Real space group dimensions                                    24    1
 PW_GRID| the grid is blocked:                                                NO
 PW_GRID| Cutoff [a.u.]                                                    250.0
 PW_GRID| spherical cutoff:                                                   NO
 PW_GRID|   Bounds   1           -202     202                Points:         405
 PW_GRID|   Bounds   2           -202     202                Points:         405
 PW_GRID|   Bounds   3           -202     202                Points:         405
 PW_GRID| Volume element (a.u.^3)  0.2743E-02     Volume (a.u.^3)    182205.0337
 PW_GRID| Grid span                                                    FULLSPACE
 PW_GRID|   Distribution                         Average         Max         Min
 PW_GRID|   G-Vectors                          2767921.9     2768175     2767770
 PW_GRID|   G-Rays                                6834.4        6835        6834
 PW_GRID|   Real Space Points                  2767921.9     2788425     2624400

 PW_GRID| Information for grid number                                          2
 PW_GRID| Number of the reference grid                                         1
 PW_GRID| Grid distributed over                                    24 processors
 PW_GRID| Real space group dimensions                                    24    1
 PW_GRID| the grid is blocked:                                                NO
 PW_GRID| Cutoff [a.u.]                                                     83.3
 PW_GRID| spherical cutoff:                                                   NO
 PW_GRID|   Bounds   1           -120     119                Points:         240
 PW_GRID|   Bounds   2           -120     119                Points:         240
 PW_GRID|   Bounds   3           -120     119                Points:         240
 PW_GRID| Volume element (a.u.^3)  0.1318E-01     Volume (a.u.^3)    182205.0337
 PW_GRID| Grid span                                                    FULLSPACE
 PW_GRID|   Distribution                         Average         Max         Min
 PW_GRID|   G-Vectors                           576000.0      576240      575760
 PW_GRID|   G-Rays                                2400.0        2401        2399
 PW_GRID|   Real Space Points                   576000.0      576000      576000

 PW_GRID| Information for grid number                                          3
 PW_GRID| Number of the reference grid                                         1
 PW_GRID| Grid distributed over                                    24 processors
 PW_GRID| Real space group dimensions                                    24    1
 PW_GRID| the grid is blocked:                                                NO
 PW_GRID| Cutoff [a.u.]                                                     27.8
 PW_GRID| spherical cutoff:                                                   NO
 PW_GRID|   Bounds   1            -67      67                Points:         135
 PW_GRID|   Bounds   2            -67      67                Points:         135
 PW_GRID|   Bounds   3            -67      67                Points:         135
 PW_GRID| Volume element (a.u.^3)  0.7406E-01     Volume (a.u.^3)    182205.0337
 PW_GRID| Grid span                                                    FULLSPACE
 PW_GRID|   Distribution                         Average         Max         Min
 PW_GRID|   G-Vectors                           102515.6      102735      102330
 PW_GRID|   G-Rays                                 759.4         761         758
 PW_GRID|   Real Space Points                   102515.6      109350       91125

 PW_GRID| Information for grid number                                          4
 PW_GRID| Number of the reference grid                                         1
 PW_GRID| Grid distributed over                                    24 processors
 PW_GRID| Real space group dimensions                                    24    1
 PW_GRID| the grid is blocked:                                                NO
 PW_GRID| Cutoff [a.u.]                                                      9.3
 PW_GRID| spherical cutoff:                                                   NO
 PW_GRID|   Bounds   1            -40      39                Points:          80
 PW_GRID|   Bounds   2            -40      39                Points:          80
 PW_GRID|   Bounds   3            -40      39                Points:          80
 PW_GRID| Volume element (a.u.^3)  0.3559         Volume (a.u.^3)    182205.0337
 PW_GRID| Grid span                                                    FULLSPACE
 PW_GRID|   Distribution                         Average         Max         Min
 PW_GRID|   G-Vectors                            21333.3       21360       21280
 PW_GRID|   G-Rays                                 266.7         267         266
 PW_GRID|   Real Space Points                    21333.3       25600       19200

 POISSON| Solver                                                         WAVELET
 POISSON| Wavelet| Scaling function                                           40
 POISSON| Periodicity                                                       NONE

 RS_GRID| Information for grid number                                          1
 RS_GRID|   Bounds   1           -202     202                Points:         405
 RS_GRID|   Bounds   2           -202     202                Points:         405
 RS_GRID|   Bounds   3           -202     202                Points:         405
 RS_GRID| Real space distribution over                                  2 groups
 RS_GRID| Real space distribution along direction                              1
 RS_GRID| Border size                                                         27
 RS_GRID| Real space distribution over                                  3 groups
 RS_GRID| Real space distribution along direction                              2
 RS_GRID| Border size                                                         27
 RS_GRID| Real space distribution over                                  4 groups
 RS_GRID| Real space distribution along direction                              3
 RS_GRID| Border size                                                         27
 RS_GRID|   Distribution                         Average         Max         Min
 RS_GRID|   Planes                                 256.5         257         256
 RS_GRID|   Distribution                         Average         Max         Min
 RS_GRID|   Planes                                 189.0         189         189
 RS_GRID|   Distribution                         Average         Max         Min
 RS_GRID|   Planes                                 155.2         156         155

 RS_GRID| Information for grid number                                          2
 RS_GRID|   Bounds   1           -120     119                Points:         240
 RS_GRID|   Bounds   2           -120     119                Points:         240
 RS_GRID|   Bounds   3           -120     119                Points:         240
 RS_GRID| Real space distribution over                                  2 groups
 RS_GRID| Real space distribution along direction                              1
 RS_GRID| Border size                                                         33
 RS_GRID| Real space distribution over                                  3 groups
 RS_GRID| Real space distribution along direction                              2
 RS_GRID| Border size                                                         33
 RS_GRID| Real space distribution over                                  4 groups
 RS_GRID| Real space distribution along direction                              3
 RS_GRID| Border size                                                         33
 RS_GRID|   Distribution                         Average         Max         Min
 RS_GRID|   Planes                                 186.0         186         186
 RS_GRID|   Distribution                         Average         Max         Min
 RS_GRID|   Planes                                 146.0         146         146
 RS_GRID|   Distribution                         Average         Max         Min
 RS_GRID|   Planes                                 126.0         126         126

 RS_GRID| Information for grid number                                          3
 RS_GRID|   Bounds   1            -67      67                Points:         135
 RS_GRID|   Bounds   2            -67      67                Points:         135
 RS_GRID|   Bounds   3            -67      67                Points:         135
 RS_GRID| Real space fully replicated
 RS_GRID| Group size                                                           1

 RS_GRID| Information for grid number                                          4
 RS_GRID|   Bounds   1            -40      39                Points:          80
 RS_GRID|   Bounds   2            -40      39                Points:          80
 RS_GRID|   Bounds   3            -40      39                Points:          80
 RS_GRID| Real space fully replicated
 RS_GRID| Group size                                                           1

  HFX_INFO| Replica ID:                                                        1
  HFX_INFO| FRACTION:                                               0.2500000000
  HFX_INFO| Interaction Potential:                                       COULOMB
  HFX_INFO| EPS_SCHWARZ:                                                 1.0E-10
  HFX_INFO| EPS_SCHWARZ_FORCES                                           1.0E-08
  HFX_INFO| EPS_STORAGE_SCALING:                                         1.0E+00
  HFX_INFO| NBINS:                                                            64
  HFX_INFO| BLOCK_SIZE:                                                        1
  HFX_INFO| Number of periodic shells considered:                           NONE
  HFX_INFO| Number of periodic cells considered:                            NONE

 
 RI-RPA| using GPW style
 

 OVERLAP MATRIX CONDITION NUMBER
 1-Norm Condition Number (Estimate)
   CN : |A|*|A^-1|:  4.491E+000 *  4.358E+001   = 1.957E+002  Log(1-CN):  2.2916
 1-Norm and 2-Norm Condition Numbers using Diagonalization
   CN : |A|*|A^-1|:  4.491E+000 *  4.358E+001   = 1.957E+002  Log(1-CN):  2.2916
   CN : max/min ev:  3.409E+000 /  3.004E-002   = 1.135E+002  Log(2-CN):  2.0549

 Number of electrons:                                                         12
 Number of occupied orbitals:                                                  6
 Number of molecular orbitals:                                                28

 Number of orbital functions:                                                 28
 Number of independent orbital functions:                                     28

 Extrapolation method: initial_guess

 Atomic guess: The first density matrix is obtained in terms of atomic orbitals
               and electronic configurations assigned to each atomic kind

 Guess for atomic kind: C

 Electronic structure
    Total number of core electrons                                          0.00
    Total number of valence electrons                                       6.00
    Total number of electrons                                               6.00
    Multiplicity                                                   not specified
    S      2.00  2.00
    P      2.00


 *******************************************************************************
                  Iteration          Convergence                     Energy [au]
 *******************************************************************************
                          1        0.120726E-01                 -36.926036183281
                          2        0.325012E-02                 -36.926141945235
                          3        0.902334E-04                 -36.926147929717
                          4        0.764850E-06                 -36.926147934338

 Energy components [Hartree]           Total Energy ::          -36.926147934338
                                        Band Energy ::          -20.183008196204
                                     Kinetic Energy ::           37.060986405996
                                   Potential Energy ::          -73.987134340334
                                      Virial (-V/T) ::            1.996361713901
                                        Core Energy ::          -50.365260861891
                                          XC Energy ::           -4.835601506082
                                     Coulomb Energy ::           18.274714433635

 Orbital energies  State     L     Occupation   Energy[a.u.]          Energy[eV]

                       1     0          2.000      -9.613839         -261.605875
                       2     0          2.000      -0.408639          -11.119626

                       1     1          2.000      -0.069026           -1.878290


 Total Electron Density at R=0:                                        77.884899
 Re-scaling the density matrix to get the right number of electrons
                  # Electrons              Trace(P)               Scaling factor
                           12                12.000                        1.000


 SCF WAVEFUNCTION OPTIMIZATION

  Step     Update method      Time    Convergence         Total energy    Change
  ------------------------------------------------------------------------------

  HFX_MEM_INFO| Est. max. program size before HFX [MiB]:                    2075
  HFX_MEM_INFO| Number of cart. primitive ERI's calculated:             20481218
  HFX_MEM_INFO| Number of sph. ERI's calculated:                          230496
  HFX_MEM_INFO| Number of sph. ERI's stored in-core:                      230496
  HFX_MEM_INFO| Number of sph. ERI's stored on disk:                           0
  HFX_MEM_INFO| Number of sph. ERI's calculated on the fly:                    0
  HFX_MEM_INFO| Total memory consumption ERI's RAM [MiB]:                      2
  HFX_MEM_INFO| Whereof max-vals [MiB]:                                        1
  HFX_MEM_INFO| Total compression factor ERI's RAM:                         1.10
  HFX_MEM_INFO| Total memory consumption ERI's disk [MiB]:                     0
  HFX_MEM_INFO| Total compression factor ERI's disk:                        0.00
  HFX_MEM_INFO| Size of density/Fock matrix [MiB]:                             0
  HFX_MEM_INFO| Size of buffers [MiB]:                                         0
  HFX_MEM_INFO| Est. max. program size after HFX  [MiB]:                    2587

     1 NoMix/Diag. 0.10E+00    6.2     0.69396273       -75.0128930553 -7.50E+01
     2 Broy./Diag. 0.10E+00    4.7     0.02400987       -75.2360457130 -2.23E-01
     3 Broy./Diag. 0.10E+00    4.8     0.00265348       -75.1955811284  4.05E-02
     4 Broy./Diag. 0.10E+00    4.8     0.03899927       -74.9179940584  2.78E-01
     5 Broy./Diag. 0.10E+00    4.8     0.01097413       -74.8803517025  3.76E-02
     6 Broy./Diag. 0.10E+00    4.9     0.00228780       -74.8819322637 -1.58E-03
     7 Broy./Diag. 0.10E+00    5.0     0.00253442       -74.8884350247 -6.50E-03
     8 Broy./Diag. 0.10E+00    5.0     0.00044116       -74.8825147796  5.92E-03
     9 Broy./Diag. 0.10E+00    5.2     0.00776625       -74.8808378392  1.68E-03
    10 Broy./Diag. 0.10E+00    5.2     0.00349564       -74.8817181639 -8.80E-04
    11 Broy./Diag. 0.10E+00    5.2     0.00089914       -74.8861582887 -4.44E-03
    12 Broy./Diag. 0.10E+00    5.2     0.00435125       -74.8920091434 -5.85E-03
    13 Broy./Diag. 0.10E+00    5.3     0.00048818       -74.8881393534  3.87E-03
    14 Broy./Diag. 0.10E+00    5.2     0.00148511       -74.8838277593  4.31E-03
    15 Broy./Diag. 0.10E+00    5.2     0.00040376       -74.8845008579 -6.73E-04
    16 Broy./Diag. 0.10E+00    5.2     0.00047289       -74.8844941303  6.73E-06
    17 Broy./Diag. 0.10E+00    5.2     0.00009143       -74.8842063127  2.88E-04
    18 Broy./Diag. 0.10E+00    5.2     0.00036687       -74.8853621841 -1.16E-03
    19 Broy./Diag. 0.10E+00    5.3     0.00012845       -74.8862579841 -8.96E-04
    20 Broy./Diag. 0.10E+00    5.2     0.00032175       -74.8864375553 -1.80E-04
    21 Broy./Diag. 0.10E+00    5.2     0.00013870       -74.8853829878  1.05E-03
    22 Broy./Diag. 0.10E+00    5.2     0.00012733       -74.8850400686  3.43E-04
    23 Broy./Diag. 0.10E+00    5.2     0.00005985       -74.8850123541  2.77E-05
    24 Broy./Diag. 0.10E+00    5.2     0.00013859       -74.8847696487  2.43E-04
    25 Broy./Diag. 0.10E+00    5.2     0.00011511       -74.8846606383  1.09E-04
    26 Broy./Diag. 0.10E+00    5.4     0.00008448       -74.8848113056 -1.51E-04
    27 Broy./Diag. 0.10E+00    5.2     0.00004525       -74.8848464519 -3.51E-05
    28 Broy./Diag. 0.10E+00    5.2     0.00004588       -74.8848067789  3.97E-05
    29 Broy./Diag. 0.10E+00    5.2     0.00007157       -74.8848212818 -1.45E-05
    30 Broy./Diag. 0.10E+00    5.3     0.00002567       -74.8848078292  1.35E-05
    31 Broy./Diag. 0.10E+00    5.3     0.00007281       -74.8847777439  3.01E-05
    32 Broy./Diag. 0.10E+00    5.2     0.00002835       -74.8847948143 -1.71E-05
    33 Broy./Diag. 0.10E+00    5.2     0.00004572       -74.8847735870  2.12E-05
    34 Broy./Diag. 0.10E+00    5.3     0.00001458       -74.8847929235 -1.93E-05
    35 Broy./Diag. 0.10E+00    5.2     0.00002814       -74.8848043805 -1.15E-05
    36 Broy./Diag. 0.10E+00    5.3     0.00003604       -74.8847914017  1.30E-05
    37 Broy./Diag. 0.10E+00    5.3     0.00002957       -74.8847896984  1.70E-06
    38 Broy./Diag. 0.10E+00    5.2     0.00002341       -74.8847926525 -2.95E-06
    39 Broy./Diag. 0.10E+00    5.2     0.00003896       -74.8847705107  2.21E-05
    40 Broy./Diag. 0.10E+00    5.2     0.00003062       -74.8847437386  2.68E-05
    41 Broy./Diag. 0.10E+00    5.2     0.00002258       -74.8847491157 -5.38E-06
    42 Broy./Diag. 0.10E+00    5.3     0.00002627       -74.8847504145 -1.30E-06
    43 Broy./Diag. 0.10E+00    5.2     0.00001853       -74.8847426062  7.81E-06
    44 Broy./Diag. 0.10E+00    5.3     0.00002131       -74.8847536189 -1.10E-05
    45 Broy./Diag. 0.10E+00    5.2     0.00002368       -74.8847578069 -4.19E-06
    46 Broy./Diag. 0.10E+00    5.3     0.00001611       -74.8847542035  3.60E-06
    47 Broy./Diag. 0.10E+00    5.2     0.00001905       -74.8847553443 -1.14E-06
    48 Broy./Diag. 0.10E+00    5.3     0.00001939       -74.8847548090  5.35E-07
    49 Broy./Diag. 0.10E+00    5.2     0.00001476       -74.8847542998  5.09E-07
    50 Broy./Diag. 0.10E+00    5.2     0.00000667       -74.8847554433 -1.14E-06
    51 Broy./Diag. 0.10E+00    5.2     0.00001178       -74.8847579217 -2.48E-06
    52 Broy./Diag. 0.10E+00    5.2     0.00000909       -74.8847611286 -3.21E-06
    53 Broy./Diag. 0.10E+00    5.4     0.00000554       -74.8847602470  8.82E-07
    54 Broy./Diag. 0.10E+00    5.3     0.00000745       -74.8847546852  5.56E-06
    55 Broy./Diag. 0.10E+00    5.2     0.00001003       -74.8847489343  5.75E-06
    56 Broy./Diag. 0.10E+00    5.3     0.00001330       -74.8847428541  6.08E-06
    57 Broy./Diag. 0.10E+00    5.2     0.00001764       -74.8847097725  3.31E-05
    58 Broy./Diag. 0.10E+00    5.3     0.00005827       -74.8847039325  5.84E-06
    59 Broy./Diag. 0.10E+00    5.2     0.00007478       -74.8847102343 -6.30E-06
    60 Broy./Diag. 0.10E+00    5.3     0.00006965       -74.8847087267  1.51E-06
    61 Broy./Diag. 0.10E+00    5.2     0.00007522       -74.8847417564 -3.30E-05
    62 Broy./Diag. 0.10E+00    5.2     0.00010513       -74.8847528987 -1.11E-05
    63 Broy./Diag. 0.10E+00    5.2     0.00013938       -74.8847220209  3.09E-05
    64 Broy./Diag. 0.10E+00    5.2     0.00019118       -74.8847229840 -9.63E-07
    65 Broy./Diag. 0.10E+00    5.2     0.00027357       -74.8846914950  3.15E-05
    66 Broy./Diag. 0.10E+00    5.2     0.00037170       -74.8847397145 -4.82E-05
    67 Broy./Diag. 0.10E+00    5.2     0.00052618       -74.8847234754  1.62E-05
    68 Broy./Diag. 0.10E+00    5.2     0.00073141       -74.8847274979 -4.02E-06
    69 Broy./Diag. 0.10E+00    5.3     0.00101613       -74.8847224599  5.04E-06
    70 Broy./Diag. 0.10E+00    5.3     0.00141551       -74.8847245047 -2.04E-06
    71 Broy./Diag. 0.10E+00    5.2     0.00196969       -74.8847261404 -1.64E-06
    72 Broy./Diag. 0.10E+00    5.2     0.00273361       -74.8846942159  3.19E-05
    73 Broy./Diag. 0.10E+00    5.2     0.00379452       -74.8846539584  4.03E-05
    74 Broy./Diag. 0.10E+00    5.2     0.00527023       -74.8845668102  8.71E-05
    75 Broy./Diag. 0.10E+00    5.2     0.00728251       -74.8846170203 -5.02E-05
    76 Broy./Diag. 0.10E+00    5.3     0.01008424       -74.8845113789  1.06E-04
    77 Broy./Diag. 0.10E+00    5.2     0.01386799       -74.8843107479  2.01E-04
    78 Broy./Diag. 0.10E+00    5.3     0.01886584       -74.8838690555  4.42E-04
    79 Broy./Diag. 0.10E+00    5.2     0.02515965       -74.8830400210  8.29E-04
    80 Broy./Diag. 0.10E+00    5.2     0.03231036       -74.8814892877  1.55E-03
    81 Broy./Diag. 0.10E+00    5.2     0.03867583       -74.8785491391  2.94E-03
    82 Broy./Diag. 0.10E+00    5.2     0.05947517       -74.8734129467  5.14E-03
    83 Broy./Diag. 0.10E+00    5.2     0.08447121       -74.8649700775  8.44E-03
    84 Broy./Diag. 0.10E+00    5.2     0.10256367       -74.8530054036  1.20E-02
    85 Broy./Diag. 0.10E+00    5.2     0.10406922       -74.8377764881  1.52E-02
    86 Broy./Diag. 0.10E+00    5.3     0.08959771       -74.8217347850  1.60E-02
    87 Broy./Diag. 0.10E+00    5.3     0.06776194       -74.8075487351  1.42E-02
    88 Broy./Diag. 0.10E+00    5.3     0.04674393       -74.7968209586  1.07E-02
    89 Broy./Diag. 0.10E+00    5.3     0.03204576       -74.7896324982  7.19E-03
    90 Broy./Diag. 0.10E+00    5.3     0.02741049       -74.7850045831  4.63E-03
    91 Broy./Diag. 0.10E+00    5.2     0.02236546       -74.7820255788  2.98E-03
    92 Broy./Diag. 0.10E+00    5.2     0.01737332       -74.7800047058  2.02E-03
    93 Broy./Diag. 0.10E+00    5.3     0.01286627       -74.7795296271  4.75E-04
    94 Broy./Diag. 0.10E+00    5.2     0.00932856       -74.7759505485  3.58E-03
    95 Broy./Diag. 0.10E+00    5.3     0.00659424       -74.7764444159 -4.94E-04
    96 Broy./Diag. 0.10E+00    5.2     0.00351998       -74.7642007832  1.22E-02
    97 Broy./Diag. 0.10E+00    5.2     0.01748425       -74.8159765367 -5.18E-02
    98 Broy./Diag. 0.10E+00    5.2     0.01182897       -74.8497236173 -3.37E-02
    99 Broy./Diag. 0.10E+00    5.2     0.02198598       -74.9015286790 -5.18E-02

 *** WARNING in pw/ps_wavelet_methods.F:238 :: Density non-zero on the ***
 *** edges of the unit cell: wrong results in WAVELET solver           ***

   100 Broy./Diag. 0.10E+00    5.2     0.04441053       -75.0428908789 -1.41E-01

 *** WARNING in pw/ps_wavelet_methods.F:238 :: Density non-zero on the ***
 *** edges of the unit cell: wrong results in WAVELET solver           ***

   101 Broy./Diag. 0.10E+00    5.2     0.07461225       -75.1110465605 -6.82E-02
   102 Broy./Diag. 0.10E+00    5.2     0.11020005       -75.0424432877  6.86E-02

 *** WARNING in pw/ps_wavelet_methods.F:238 :: Density non-zero on the ***
 *** edges of the unit cell: wrong results in WAVELET solver           ***

   103 Broy./Diag. 0.10E+00    5.2     0.15419418       -75.0770725890 -3.46E-02

 *** WARNING in pw/ps_wavelet_methods.F:238 :: Density non-zero on the ***
 *** edges of the unit cell: wrong results in WAVELET solver           ***

   104 Broy./Diag. 0.10E+00    5.3     0.15719846       -75.0743998620  2.67E-03
   105 Broy./Diag. 0.10E+00    5.3     0.05312032       -74.8497629261  2.25E-01
   106 Broy./Diag. 0.10E+00    5.3     0.09096991       -74.9356212953 -8.59E-02
   107 Broy./Diag. 0.10E+00    5.2     0.10941637       -75.0025440909 -6.69E-02
   108 Broy./Diag. 0.10E+00    5.2     0.08511585       -74.9446869350  5.79E-02
   109 Broy./Diag. 0.10E+00    5.2     0.14429414       -74.8047758402  1.40E-01
   110 Broy./Diag. 0.10E+00    5.3     0.20703691       -74.8343742250 -2.96E-02
   111 Broy./Diag. 0.10E+00    5.4     0.17678377       -74.8064998814  2.79E-02
   112 Broy./Diag. 0.10E+00    5.2     0.07054350       -74.8272984789 -2.08E-02
   113 Broy./Diag. 0.10E+00    5.2     0.03450629       -74.9083872214 -8.11E-02
   114 Broy./Diag. 0.10E+00    5.2     0.01609677       -74.9325474264 -2.42E-02
   115 Broy./Diag. 0.10E+00    5.2     0.02190379       -74.9399903151 -7.44E-03
   116 Broy./Diag. 0.10E+00    5.3     0.07472464       -74.9613455027 -2.14E-02
   117 Broy./Diag. 0.10E+00    5.3     0.17761567       -74.9662882400 -4.94E-03
   118 Broy./Diag. 0.10E+00    5.2     0.13588982       -74.9740743223 -7.79E-03
   119 Broy./Diag. 0.10E+00    5.2     0.07603967       -74.9743950060 -3.21E-04
   120 Broy./Diag. 0.10E+00    5.3     0.07274085       -74.9541280706  2.03E-02
   121 Broy./Diag. 0.10E+00    5.2     0.04096953       -74.9721531963 -1.80E-02
   122 Broy./Diag. 0.10E+00    5.2     0.04045350       -74.9832241826 -1.11E-02
   123 Broy./Diag. 0.10E+00    5.2     0.04449235       -74.9618862674  2.13E-02
   124 Broy./Diag. 0.10E+00    5.2     0.04698777       -74.9197796826  4.21E-02
   125 Broy./Diag. 0.10E+00    5.2     0.06513330       -74.8720616631  4.77E-02
   126 Broy./Diag. 0.10E+00    5.2     0.08980468       -74.8649718502  7.09E-03
   127 Broy./Diag. 0.10E+00    5.2     0.12780981       -74.8391966704  2.58E-02
   128 Broy./Diag. 0.10E+00    5.3     0.09285874       -74.8446053444 -5.41E-03
   129 Broy./Diag. 0.10E+00    5.3     0.04863052       -74.8558274856 -1.12E-02
   130 Broy./Diag. 0.10E+00    5.2     0.04117782       -74.8513152788  4.51E-03
   131 Broy./Diag. 0.10E+00    5.2     0.04207218       -74.8615249585 -1.02E-02
   132 Broy./Diag. 0.10E+00    5.2     0.04487465       -74.8638943742 -2.37E-03
   133 Broy./Diag. 0.10E+00    5.2     0.04715142       -74.8568888028  7.01E-03
   134 Broy./Diag. 0.10E+00    5.3     0.04842343       -74.8473633718  9.53E-03
   135 Broy./Diag. 0.10E+00    5.2     0.06111063       -74.8384590969  8.90E-03
   136 Broy./Diag. 0.10E+00    5.2     0.06516014       -74.8294076727  9.05E-03
   137 Broy./Diag. 0.10E+00    5.2     0.08101800       -74.8579960635 -2.86E-02
   138 Broy./Diag. 0.10E+00    5.2     0.08054178       -74.8845127835 -2.65E-02
   139 Broy./Diag. 0.10E+00    5.2     0.07682981       -74.8863581145 -1.85E-03
   140 Broy./Diag. 0.10E+00    5.2     0.05927159       -74.8941144531 -7.76E-03
   141 Broy./Diag. 0.10E+00    5.2     0.07798728       -74.9062286506 -1.21E-02
   142 Broy./Diag. 0.10E+00    5.2     0.07928294       -74.9470513829 -4.08E-02
   143 Broy./Diag. 0.10E+00    5.2     0.05769165       -74.9744887426 -2.74E-02
   144 Broy./Diag. 0.10E+00    5.2     0.03477370       -74.9647677604  9.72E-03
   145 Broy./Diag. 0.10E+00    5.3     0.03037539       -74.9324906396  3.23E-02
   146 Broy./Diag. 0.10E+00    5.2     0.03464450       -74.9403167590 -7.83E-03
   147 Broy./Diag. 0.10E+00    5.2     0.04404884       -74.9486227908 -8.31E-03
   148 Broy./Diag. 0.10E+00    5.2     0.04743776       -74.9495329955 -9.10E-04
   149 Broy./Diag. 0.10E+00    5.2     0.08535244       -74.9360369867  1.35E-02
   150 Broy./Diag. 0.10E+00    5.2     0.11725489       -74.9234634707  1.26E-02
   151 Broy./Diag. 0.10E+00    5.3     0.08965320       -74.9211851206  2.28E-03
   152 Broy./Diag. 0.10E+00    5.2     0.03600000       -74.9099888660  1.12E-02
   153 Broy./Diag. 0.10E+00    5.2     0.02854285       -74.9212354404 -1.12E-02
   154 Broy./Diag. 0.10E+00    5.2     0.02451282       -74.9368537925 -1.56E-02
   155 Broy./Diag. 0.10E+00    5.3     0.02524466       -74.9446932702 -7.84E-03
   156 Broy./Diag. 0.10E+00    5.2     0.03131151       -74.9290539486  1.56E-02
   157 Broy./Diag. 0.10E+00    5.2     0.04128626       -74.8914098018  3.76E-02
   158 Broy./Diag. 0.10E+00    5.2     0.04442059       -74.8976223145 -6.21E-03
   159 Broy./Diag. 0.10E+00    5.2     0.05129158       -74.9124228827 -1.48E-02
   160 Broy./Diag. 0.10E+00    5.2     0.07541002       -74.9272804482 -1.49E-02
   161 Broy./Diag. 0.10E+00    5.2     0.09969152       -74.9294883503 -2.21E-03
   162 Broy./Diag. 0.10E+00    5.3     0.20865739       -74.9950938907 -6.56E-02
   163 Broy./Diag. 0.10E+00    5.2     0.20951948       -74.9666597296  2.84E-02
   164 Broy./Diag. 0.10E+00    5.2     0.06765395       -74.9048059764  6.19E-02
   165 Broy./Diag. 0.10E+00    5.2     0.02168237       -74.9009196598  3.89E-03
   166 Broy./Diag. 0.10E+00    5.2     0.01119177       -74.9045134186 -3.59E-03
   167 Broy./Diag. 0.10E+00    5.2     0.03829819       -74.9407666430 -3.63E-02
   168 Broy./Diag. 0.10E+00    5.2     0.05672643       -74.9467326603 -5.97E-03
   169 Broy./Diag. 0.10E+00    5.2     0.04554093       -74.9718023830 -2.51E-02
   170 Broy./Diag. 0.10E+00    5.2     0.05148750       -74.9596200497  1.22E-02
   171 Broy./Diag. 0.10E+00    5.3     0.05211416       -74.9137860308  4.58E-02
   172 Broy./Diag. 0.10E+00    5.2     0.08857469       -74.8654366242  4.83E-02
   173 Broy./Diag. 0.10E+00    5.3     0.03765508       -74.8522080667  1.32E-02
   174 Broy./Diag. 0.10E+00    5.3     0.04124779       -74.8334941349  1.87E-02
   175 Broy./Diag. 0.10E+00    5.3     0.02212661       -74.8357258780 -2.23E-03
   176 Broy./Diag. 0.10E+00    5.2     0.01464054       -74.8339368535  1.79E-03
   177 Broy./Diag. 0.10E+00    5.3     0.02226854       -74.8313751911  2.56E-03
   178 Broy./Diag. 0.10E+00    5.2     0.02991071       -74.8221302562  9.24E-03
   179 Broy./Diag. 0.10E+00    5.3     0.03923699       -74.8095491043  1.26E-02
   180 Broy./Diag. 0.10E+00    5.2     0.05302124       -74.8096605463 -1.11E-04
   181 Broy./Diag. 0.10E+00    5.3     0.09246562       -74.8043074707  5.35E-03
   182 Broy./Diag. 0.10E+00    5.2     0.13004046       -74.7959649548  8.34E-03
   183 Broy./Diag. 0.10E+00    5.2     0.13681542       -74.7823803818  1.36E-02
   184 Broy./Diag. 0.10E+00    5.2     0.11858539       -74.7709474760  1.14E-02
   185 Broy./Diag. 0.10E+00    5.2     0.08846332       -74.7975134560 -2.66E-02
   186 Broy./Diag. 0.10E+00    5.2     0.05681422       -74.7924645881  5.05E-03
   187 Broy./Diag. 0.10E+00    5.2     0.03173794       -74.8121794724 -1.97E-02
   188 Broy./Diag. 0.10E+00    5.2     0.03764955       -74.8083401117  3.84E-03
   189 Broy./Diag. 0.10E+00    5.2     0.05271455       -74.8126756192 -4.34E-03
   190 Broy./Diag. 0.10E+00    5.2     0.05720862       -74.8168573614 -4.18E-03
   191 Broy./Diag. 0.10E+00    5.3     0.08390274       -74.7978640332  1.90E-02
   192 Broy./Diag. 0.10E+00    5.2     0.11320969       -74.7575864538  4.03E-02
   193 Broy./Diag. 0.10E+00    5.2     0.11703114       -74.7534794910  4.11E-03
   194 Broy./Diag. 0.10E+00    5.3     0.05955325       -74.7555091925 -2.03E-03
   195 Broy./Diag. 0.10E+00    5.2     0.10323634       -74.7539930638  1.52E-03
   196 Broy./Diag. 0.10E+00    5.3     0.06085426       -74.7595528668 -5.56E-03
   197 Broy./Diag. 0.10E+00    5.2     0.03835973       -74.7980503786 -3.85E-02
   198 Broy./Diag. 0.10E+00    5.2     0.01589170       -74.8179418696 -1.99E-02
   199 Broy./Diag. 0.10E+00    5.2     0.05673906       -74.8617278367 -4.38E-02
   200 Broy./Diag. 0.10E+00    5.2     0.15318024       -74.8984491115 -3.67E-02
   201 Broy./Diag. 0.10E+00    5.2     0.15261668       -74.8958044496  2.64E-03
   202 Broy./Diag. 0.10E+00    5.2     0.12931876       -74.8555270454  4.03E-02
   203 Broy./Diag. 0.10E+00    5.2     0.06802703       -74.8995820783 -4.41E-02
   204 Broy./Diag. 0.10E+00    5.2     0.04361572       -74.8914864250  8.10E-03
   205 Broy./Diag. 0.10E+00    5.2     0.04214553       -74.8408614773  5.06E-02
   206 Broy./Diag. 0.10E+00    5.3     0.07718282       -74.8645956140 -2.37E-02
   207 Broy./Diag. 0.10E+00    5.2     0.05768115       -74.8165099318  4.81E-02
   208 Broy./Diag. 0.10E+00    5.3     0.06718683       -74.8291934725 -1.27E-02
   209 Broy./Diag. 0.10E+00    5.2     0.14913121       -74.8631214225 -3.39E-02

 *** WARNING in pw/ps_wavelet_methods.F:238 :: Density non-zero on the ***
 *** edges of the unit cell: wrong results in WAVELET solver           ***

   210 Broy./Diag. 0.10E+00    5.2     0.15327791       -74.8789357171 -1.58E-02
   211 Broy./Diag. 0.10E+00    5.2     0.08554222       -74.8915712933 -1.26E-02
   212 Broy./Diag. 0.10E+00    5.3     0.05392575       -74.9018058695 -1.02E-02
   213 Broy./Diag. 0.10E+00    5.3     0.03157646       -74.9287663707 -2.70E-02
   214 Broy./Diag. 0.10E+00    5.2     0.06581819       -74.9536216237 -2.49E-02
   215 Broy./Diag. 0.10E+00    5.2     0.03955111       -74.9607892546 -7.17E-03
   216 Broy./Diag. 0.10E+00    5.2     0.07248797       -74.9398120757  2.10E-02
   217 Broy./Diag. 0.10E+00    5.2     0.06679215       -74.9636514331 -2.38E-02
   218 Broy./Diag. 0.10E+00    5.2     0.10025274       -74.9475580653  1.61E-02
   219 Broy./Diag. 0.10E+00    5.2     0.14946017       -74.9340815111  1.35E-02
   220 Broy./Diag. 0.10E+00    5.3     0.11724793       -74.9417593590 -7.68E-03
   221 Broy./Diag. 0.10E+00    5.2     0.07262537       -74.9313810526  1.04E-02
   222 Broy./Diag. 0.10E+00    5.3     0.03713806       -74.9623336342 -3.10E-02
   223 Broy./Diag. 0.10E+00    5.2     0.00801377       -74.9291381134  3.32E-02
   224 Broy./Diag. 0.10E+00    5.2     0.02403840       -74.9251945249  3.94E-03
   225 Broy./Diag. 0.10E+00    5.2     0.11582722       -75.0276604604 -1.02E-01
   226 Broy./Diag. 0.10E+00    5.2     0.16659291       -75.0400944568 -1.24E-02
   227 Broy./Diag. 0.10E+00    5.2     0.06048305       -74.9412919662  9.88E-02
   228 Broy./Diag. 0.10E+00    5.2     0.08050370       -74.9835158487 -4.22E-02
   229 Broy./Diag. 0.10E+00    5.2     0.05960249       -74.9932128126 -9.70E-03
   230 Broy./Diag. 0.10E+00    5.2     0.05894788       -74.9888471635  4.37E-03
   231 Broy./Diag. 0.10E+00    5.2     0.05623701       -74.9670240426  2.18E-02
   232 Broy./Diag. 0.10E+00    5.2     0.07279206       -74.9442972615  2.27E-02
   233 Broy./Diag. 0.10E+00    5.2     0.05488387       -74.9411052056  3.19E-03
   234 Broy./Diag. 0.10E+00    5.2     0.05553643       -74.9452650727 -4.16E-03
   235 Broy./Diag. 0.10E+00    5.2     0.05664438       -74.9010626660  4.42E-02
   236 Broy./Diag. 0.10E+00    5.3     0.07046113       -74.8975626759  3.50E-03
   237 Broy./Diag. 0.10E+00    5.2     0.09824693       -74.8797773829  1.78E-02
   238 Broy./Diag. 0.10E+00    5.2     0.09083055       -74.8696698349  1.01E-02
   239 Broy./Diag. 0.10E+00    5.2     0.08641329       -74.8629083835  6.76E-03
   240 Broy./Diag. 0.10E+00    5.2     0.05244814       -74.8621835784  7.25E-04
   241 Broy./Diag. 0.10E+00    5.2     0.02739987       -74.8802193325 -1.80E-02
   242 Broy./Diag. 0.10E+00    5.3     0.04872197       -74.8589426881  2.13E-02
   243 Broy./Diag. 0.10E+00    5.2     0.04431293       -74.8685494036 -9.61E-03
   244 Broy./Diag. 0.10E+00    5.2     0.04924034       -74.8964948636 -2.79E-02
   245 Broy./Diag. 0.10E+00    5.2     0.02872761       -74.9230560179 -2.66E-02
   246 Broy./Diag. 0.10E+00    5.2     0.02645560       -74.9662745871 -4.32E-02

 *** WARNING in pw/ps_wavelet_methods.F:238 :: Density non-zero on the ***
 *** edges of the unit cell: wrong results in WAVELET solver           ***

   247 Broy./Diag. 0.10E+00    5.3     0.10749517       -74.9274458912  3.88E-02

 *** WARNING in pw/ps_wavelet_methods.F:238 :: Density non-zero on the ***
 *** edges of the unit cell: wrong results in WAVELET solver           ***

   248 Broy./Diag. 0.10E+00    5.3     0.26011951       -74.9764798754 -4.90E-02
   249 Broy./Diag. 0.10E+00    5.2     0.15076364       -74.9716848856  4.79E-03
   250 Broy./Diag. 0.10E+00    5.2     0.04470169       -74.9460288905  2.57E-02
   251 Broy./Diag. 0.10E+00    5.2     0.08085759       -75.0328746617 -8.68E-02
   252 Broy./Diag. 0.10E+00    5.2     0.07205971       -75.0629656785 -3.01E-02
   253 Broy./Diag. 0.10E+00    5.2     0.05108093       -74.9858497747  7.71E-02
   254 Broy./Diag. 0.10E+00    5.2     0.01911950       -75.0088247930 -2.30E-02
   255 Broy./Diag. 0.10E+00    5.2     0.03273858       -75.0287812565 -2.00E-02
   256 Broy./Diag. 0.10E+00    5.2     0.04219239       -74.9984093074  3.04E-02
   257 Broy./Diag. 0.10E+00    5.2     0.02283739       -74.9490697296  4.93E-02
   258 Broy./Diag. 0.10E+00    5.3     0.05615923       -74.9443695217  4.70E-03
   259 Broy./Diag. 0.10E+00    5.4     0.02182354       -74.9326293380  1.17E-02
   260 Broy./Diag. 0.10E+00    5.2     0.02682026       -74.9244295248  8.20E-03
   261 Broy./Diag. 0.10E+00    5.2     0.02675405       -74.9247550811 -3.26E-04
   262 Broy./Diag. 0.10E+00    5.2     0.03491533       -74.9279501038 -3.20E-03
   263 Broy./Diag. 0.10E+00    5.3     0.04216097       -74.9315666476 -3.62E-03
   264 Broy./Diag. 0.10E+00    5.3     0.05883031       -74.9332749978 -1.71E-03
   265 Broy./Diag. 0.10E+00    5.3     0.06991429       -74.9355624808 -2.29E-03
   266 Broy./Diag. 0.10E+00    5.2     0.07666025       -74.9282358486  7.33E-03
   267 Broy./Diag. 0.10E+00    5.2     0.06993802       -74.9229276161  5.31E-03
   268 Broy./Diag. 0.10E+00    5.2     0.08281276       -74.9096782303  1.32E-02
   269 Broy./Diag. 0.10E+00    5.2     0.08233644       -74.8905004487  1.92E-02
   270 Broy./Diag. 0.10E+00    5.2     0.07334789       -74.8724038945  1.81E-02
   271 Broy./Diag. 0.10E+00    5.3     0.05661187       -74.8570326548  1.54E-02
   272 Broy./Diag. 0.10E+00    5.2     0.04293228       -74.8428035208  1.42E-02
   273 Broy./Diag. 0.10E+00    5.3     0.03758665       -74.8360320679  6.77E-03
   274 Broy./Diag. 0.10E+00    5.2     0.03514707       -74.8387403521 -2.71E-03
   275 Broy./Diag. 0.10E+00    5.2     0.01414740       -74.8324668212  6.27E-03
   276 Broy./Diag. 0.10E+00    5.2     0.01930549       -74.8145932415  1.79E-02
   277 Broy./Diag. 0.10E+00    5.2     0.03767753       -74.8078381128  6.76E-03
   278 Broy./Diag. 0.10E+00    5.2     0.06730889       -74.8051841621  2.65E-03
   279 Broy./Diag. 0.10E+00    5.2     0.07926447       -74.8026111506  2.57E-03
   280 Broy./Diag. 0.10E+00    5.2     0.05420617       -74.8203315587 -1.77E-02
   281 Broy./Diag. 0.10E+00    5.2     0.02869935       -74.8676007143 -4.73E-02
   282 Broy./Diag. 0.10E+00    5.3     0.06157109       -74.9318108972 -6.42E-02
   283 Broy./Diag. 0.10E+00    5.3     0.16178930       -74.9844844358 -5.27E-02
   284 Broy./Diag. 0.10E+00    5.2     0.19145655       -74.9847392287 -2.55E-04
   285 Broy./Diag. 0.10E+00    5.2     0.14065974       -74.9523623319  3.24E-02
   286 Broy./Diag. 0.10E+00    5.2     0.09177724       -74.9483889921  3.97E-03
   287 Broy./Diag. 0.10E+00    5.3     0.05729367       -74.9325367376  1.59E-02
   288 Broy./Diag. 0.10E+00    5.2     0.04724660       -74.9471378987 -1.46E-02
   289 Broy./Diag. 0.10E+00    5.4     0.03915215       -74.9441805855  2.96E-03
   290 Broy./Diag. 0.10E+00    5.2     0.04013638       -74.9432312643  9.49E-04
   291 Broy./Diag. 0.10E+00    5.2     0.04052014       -74.9407436347  2.49E-03
   292 Broy./Diag. 0.10E+00    5.2     0.04114244       -74.9496065698 -8.86E-03
   293 Broy./Diag. 0.10E+00    5.2     0.02952479       -74.9370839946  1.25E-02
   294 Broy./Diag. 0.10E+00    5.2     0.02209232       -74.9251384729  1.19E-02
   295 Broy./Diag. 0.10E+00    5.2     0.04757688       -74.9051447341  2.00E-02
   296 Broy./Diag. 0.10E+00    5.2     0.06375216       -74.9097920168 -4.65E-03
   297 Broy./Diag. 0.10E+00    5.2     0.07620799       -74.9035582978  6.23E-03
   298 Broy./Diag. 0.10E+00    5.3     0.08191712       -74.8936388808  9.92E-03
   299 Broy./Diag. 0.10E+00    5.2     0.09806316       -74.8755147495  1.81E-02
   300 Broy./Diag. 0.10E+00    5.2     0.09732348       -74.8637029079  1.18E-02
   301 Broy./Diag. 0.10E+00    5.2     0.06821308       -74.8584063104  5.30E-03
   302 Broy./Diag. 0.10E+00    5.2     0.06162053       -74.8461827136  1.22E-02
   303 Broy./Diag. 0.10E+00    5.2     0.06183279       -74.8363838832  9.80E-03
   304 Broy./Diag. 0.10E+00    5.2     0.04908351       -74.8289797623  7.40E-03
   305 Broy./Diag. 0.10E+00    5.3     0.04056844       -74.8246536307  4.33E-03
   306 Broy./Diag. 0.10E+00    5.3     0.04125272       -74.8256031062 -9.49E-04
   307 Broy./Diag. 0.10E+00    5.2     0.03835197       -74.8761383107 -5.05E-02
   308 Broy./Diag. 0.10E+00    5.2     0.03433080       -74.9195079798 -4.34E-02
   309 Broy./Diag. 0.10E+00    5.2     0.02549276       -74.9294280485 -9.92E-03
   310 Broy./Diag. 0.10E+00    5.2     0.02395239       -74.9287082545  7.20E-04
   311 Broy./Diag. 0.10E+00    5.2     0.02531480       -74.9229138677  5.79E-03
   312 Broy./Diag. 0.10E+00    5.2     0.01987517       -74.9208500372  2.06E-03
   313 Broy./Diag. 0.10E+00    5.2     0.04912871       -74.9119864067  8.86E-03
   314 Broy./Diag. 0.10E+00    5.3     0.09625000       -74.9232896424 -1.13E-02
   315 Broy./Diag. 0.10E+00    5.3     0.10184115       -74.9491362718 -2.58E-02
   316 Broy./Diag. 0.10E+00    5.2     0.11538349       -74.9460581784  3.08E-03
   317 Broy./Diag. 0.10E+00    5.3     0.11022528       -74.9198567451  2.62E-02
   318 Broy./Diag. 0.10E+00    5.2     0.13488217       -74.9222336541 -2.38E-03
   319 Broy./Diag. 0.10E+00    5.2     0.07956433       -74.9162119112  6.02E-03
   320 Broy./Diag. 0.10E+00    5.2     0.02811821       -74.9135716062  2.64E-03
   321 Broy./Diag. 0.10E+00    5.2     0.05418788       -74.9024302478  1.11E-02
   322 Broy./Diag. 0.10E+00    5.3     0.04773943       -74.9066299711 -4.20E-03
   323 Broy./Diag. 0.10E+00    5.3     0.14635749       -74.8592164916  4.74E-02
   324 Broy./Diag. 0.10E+00    5.3     0.11060650       -74.8466538735  1.26E-02
   325 Broy./Diag. 0.10E+00    5.2     0.08953830       -74.8450178209  1.64E-03
   326 Broy./Diag. 0.10E+00    5.2     0.06480375       -74.8695715615 -2.46E-02
   327 Broy./Diag. 0.10E+00    5.2     0.04279459       -74.9072800317 -3.77E-02
   328 Broy./Diag. 0.10E+00    5.3     0.01913483       -74.9122851206 -5.01E-03
   329 Broy./Diag. 0.10E+00    5.2     0.07476561       -74.9114388708  8.46E-04
   330 Broy./Diag. 0.10E+00    5.2     0.06299517       -74.9286613827 -1.72E-02
   331 Broy./Diag. 0.10E+00    5.2     0.02240472       -74.9467292387 -1.81E-02
   332 Broy./Diag. 0.10E+00    5.2     0.01296418       -74.9615398275 -1.48E-02

 *** WARNING in pw/ps_wavelet_methods.F:238 :: Density non-zero on the ***
 *** edges of the unit cell: wrong results in WAVELET solver           ***

   333 Broy./Diag. 0.10E+00    5.2     0.02145526       -74.9728667842 -1.13E-02

 *** WARNING in pw/ps_wavelet_methods.F:238 :: Density non-zero on the ***
 *** edges of the unit cell: wrong results in WAVELET solver           ***

   334 Broy./Diag. 0.10E+00    5.3     0.07811883       -74.9784959109 -5.63E-03

 *** WARNING in pw/ps_wavelet_methods.F:238 :: Density non-zero on the ***
 *** edges of the unit cell: wrong results in WAVELET solver           ***

   335 Broy./Diag. 0.10E+00    5.3     0.15727426       -74.9638249418  1.47E-02
   336 Broy./Diag. 0.10E+00    5.2     0.18793038       -74.9319154445  3.19E-02
   337 Broy./Diag. 0.10E+00    5.3     0.14974730       -74.9008013545  3.11E-02
   338 Broy./Diag. 0.10E+00    5.2     0.09567886       -74.8917025210  9.10E-03
   339 Broy./Diag. 0.10E+00    5.2     0.05029218       -74.9071629576 -1.55E-02
   340 Broy./Diag. 0.10E+00    5.3     0.03094027       -74.9161807093 -9.02E-03
   341 Broy./Diag. 0.10E+00    5.2     0.04437292       -74.9207242294 -4.54E-03
   342 Broy./Diag. 0.10E+00    5.2     0.04010229       -74.9354734728 -1.47E-02
   343 Broy./Diag. 0.10E+00    5.2     0.04003396       -74.9410440621 -5.57E-03
   344 Broy./Diag. 0.10E+00    5.2     0.04253973       -74.9469600494 -5.92E-03
   345 Broy./Diag. 0.10E+00    5.3     0.07438080       -74.9353131081  1.16E-02
   346 Broy./Diag. 0.10E+00    5.2     0.04701466       -74.9173448916  1.80E-02
   347 Broy./Diag. 0.10E+00    5.2     0.03348679       -74.9011125467  1.62E-02
   348 Broy./Diag. 0.10E+00    5.2     0.05298170       -74.8902719566  1.08E-02
   349 Broy./Diag. 0.10E+00    5.2     0.05836692       -74.8819630514  8.31E-03
   350 Broy./Diag. 0.10E+00    5.2     0.04697294       -74.8743401739  7.62E-03
   351 Broy./Diag. 0.10E+00    5.2     0.02992614       -74.8702834871  4.06E-03
   352 Broy./Diag. 0.10E+00    5.2     0.09372033       -74.8418078240  2.85E-02
   353 Broy./Diag. 0.10E+00    5.2     0.02795175       -74.8606305875 -1.88E-02
   354 Broy./Diag. 0.10E+00    5.2     0.01460892       -74.8821235092 -2.15E-02
   355 Broy./Diag. 0.10E+00    5.2     0.01082096       -74.8911974566 -9.07E-03
   356 Broy./Diag. 0.10E+00    5.3     0.02853447       -74.8909477199  2.50E-04
   357 Broy./Diag. 0.10E+00    5.2     0.05590866       -74.8839095919  7.04E-03
   358 Broy./Diag. 0.10E+00    5.2     0.12185533       -74.8654711612  1.84E-02
   359 Broy./Diag. 0.10E+00    5.3     0.08533262       -74.8650627896  4.08E-04
   360 Broy./Diag. 0.10E+00    5.3     0.04211836       -74.8832307480 -1.82E-02
   361 Broy./Diag. 0.10E+00    5.2     0.05829103       -74.8985519341 -1.53E-02
   362 Broy./Diag. 0.10E+00    5.4     0.10243661       -74.9086683299 -1.01E-02
   363 Broy./Diag. 0.10E+00    5.2     0.08620753       -74.9129639206 -4.30E-03
   364 Broy./Diag. 0.10E+00    5.2     0.07966552       -74.9171273315 -4.16E-03
   365 Broy./Diag. 0.10E+00    5.2     0.05575775       -74.9305287248 -1.34E-02
   366 Broy./Diag. 0.10E+00    5.2     0.03811539       -74.9427283693 -1.22E-02
   367 Broy./Diag. 0.10E+00    5.2     0.05913057       -74.9421798555  5.49E-04
   368 Broy./Diag. 0.10E+00    5.3     0.06095922       -74.9385042009  3.68E-03
   369 Broy./Diag. 0.10E+00    5.2     0.04447461       -74.9185157552  2.00E-02
   370 Broy./Diag. 0.10E+00    5.2     0.02647008       -74.8959406932  2.26E-02
   371 Broy./Diag. 0.10E+00    5.2     0.02346166       -74.8777784852  1.82E-02
   372 Broy./Diag. 0.10E+00    5.2     0.03588396       -74.8708573551  6.92E-03
   373 Broy./Diag. 0.10E+00    5.2     0.08655580       -74.8461672674  2.47E-02
   374 Broy./Diag. 0.10E+00    5.3     0.05085218       -74.9100239167 -6.39E-02
   375 Broy./Diag. 0.10E+00    5.2     0.03186768       -74.9199621232 -9.94E-03
   376 Broy./Diag. 0.10E+00    5.2     0.03109897       -74.8675044620  5.25E-02
   377 Broy./Diag. 0.10E+00    5.2     0.03750613       -74.8407250598  2.68E-02
   378 Broy./Diag. 0.10E+00    5.2     0.04654626       -74.8481670986 -7.44E-03
   379 Broy./Diag. 0.10E+00    5.2     0.08719131       -74.8440675195  4.10E-03
   380 Broy./Diag. 0.10E+00    5.3     0.09558881       -74.8467338441 -2.67E-03
   381 Broy./Diag. 0.10E+00    5.2     0.16279521       -74.8810705043 -3.43E-02
[...]
   418 Broy./Diag. 0.10E+00    5.3     0.11445179       -75.0828374096 -8.79E-02
   419 Broy./Diag. 0.10E+00    5.2     0.07179454       -75.0338215387  4.90E-02
   420 Broy./Diag. 0.10E+00    5.4     0.12565402       -74.9340565122  9.98E-02
   421 Broy./Diag. 0.10E+00    5.2     0.09213571       -74.9392754149 -5.22E-03
   422 Broy./Diag. 0.10E+00    5.2     0.05328528       -74.9649803113 -2.57E-02
   423 Broy./Diag. 0.10E+00    5.3     0.04497443       -74.9682405830 -3.26E-03
   424 Broy./Diag. 0.10E+00    5.2     0.04533922       -74.9596914387  8.55E-03
   425 Broy./Diag. 0.10E+00    5.4     0.05217948       -74.9542980430  5.39E-03
   426 Broy./Diag. 0.10E+00    5.2     0.05190412       -74.9423997240  1.19E-02
   427 Broy./Diag. 0.10E+00    5.2     0.08228057       -74.9366241469  5.78E-03
   428 Broy./Diag. 0.10E+00    5.2     0.04466782       -74.8897853255  4.68E-02
   429 Broy./Diag. 0.10E+00    5.2     0.08405784       -74.8665946430  2.32E-02
   430 Broy./Diag. 0.10E+00    5.2     0.07085916       -74.8913283464 -2.47E-02
   431 Broy./Diag. 0.10E+00    5.3     0.07886294       -74.9063340631 -1.50E-02
   432 Broy./Diag. 0.10E+00    5.2     0.06550049       -74.8733882480  3.29E-02
   433 Broy./Diag. 0.10E+00    5.2     0.09852509       -74.8341206928  3.93E-02
   434 Broy./Diag. 0.10E+00    5.2     0.09986299       -74.8559846726 -2.19E-02
   435 Broy./Diag. 0.10E+00    5.3     0.07912773       -74.8422217625  1.38E-02
   436 Broy./Diag. 0.10E+00    5.2     0.14152269       -74.8600462151 -1.78E-02
   437 Broy./Diag. 0.10E+00    5.3     0.15333060       -74.8273012617  3.27E-02
   438 Broy./Diag. 0.10E+00    5.2     0.08498136       -74.7457394514  8.16E-02
   439 Broy./Diag. 0.10E+00    5.2     0.07371893       -74.7145688944  3.12E-02
   440 Broy./Diag. 0.10E+00    5.2     0.13402334       -74.7404271392 -2.59E-02
   441 Broy./Diag. 0.10E+00    5.3     0.17890787       -74.7982851106 -5.79E-02
   442 Broy./Diag. 0.10E+00    5.3     0.17126191       -74.8758942996 -7.76E-02
   443 Broy./Diag. 0.10E+00    5.3     0.09793311       -74.8933518342 -1.75E-02
   444 Broy./Diag. 0.10E+00    5.2     0.05913645       -74.8715263232  2.18E-02
   445 Broy./Diag. 0.10E+00    5.2     0.04573629       -74.8427774260  2.87E-02
   446 Broy./Diag. 0.10E+00    5.2     0.04305648       -74.8320397088  1.07E-02
   447 Broy./Diag. 0.10E+00    5.2     0.03515205       -74.8423057663 -1.03E-02
   448 Broy./Diag. 0.10E+00    5.3     0.03322524       -74.8617033423 -1.94E-02
   449 Broy./Diag. 0.10E+00    5.3     0.03940164       -74.8944089485 -3.27E-02
   450 Broy./Diag. 0.10E+00    5.2     0.02112480       -74.9124837976 -1.81E-02
   451 Broy./Diag. 0.10E+00    5.2     0.02767916       -74.8977125144  1.48E-02
   452 Broy./Diag. 0.10E+00    5.2     0.02262340       -74.8856154565  1.21E-02
   453 Broy./Diag. 0.10E+00    5.3     0.03783558       -74.8626939221  2.29E-02
   454 Broy./Diag. 0.10E+00    5.2     0.03609060       -74.8681800826 -5.49E-03
   455 Broy./Diag. 0.10E+00    5.2     0.06450239       -74.8743997725 -6.22E-03
   456 Broy./Diag. 0.10E+00    5.2     0.09158058       -74.8766170865 -2.22E-03
   457 Broy./Diag. 0.10E+00    5.2     0.07488238       -74.8891844203 -1.26E-02
   458 Broy./Diag. 0.10E+00    5.2     0.09780237       -74.8817031085  7.48E-03
   459 Broy./Diag. 0.10E+00    5.2     0.08456871       -74.8575383780  2.42E-02
   460 Broy./Diag. 0.10E+00    5.3     0.04342725       -74.8312653455  2.63E-02
   461 Broy./Diag. 0.10E+00    5.2     0.03224995       -74.8318494759 -5.84E-04
   462 Broy./Diag. 0.10E+00    5.2     0.03743864       -74.7894638746  4.24E-02
   463 Broy./Diag. 0.10E+00    5.3     0.03668806       -74.7457068717  4.38E-02
   464 Broy./Diag. 0.10E+00    5.2     0.03633267       -74.7168073188  2.89E-02
   465 Broy./Diag. 0.10E+00    5.4     0.02789325       -74.6904487233  2.64E-02
   466 Broy./Diag. 0.10E+00    5.4     0.02656911       -74.6799596913  1.05E-02
   467 Broy./Diag. 0.10E+00    5.2     0.02110089       -74.6816700542 -1.71E-03
   468 Broy./Diag. 0.10E+00    5.3     0.09531694       -74.6471948554  3.45E-02
   469 Broy./Diag. 0.10E+00    5.2     0.16139228       -74.6977799913 -5.06E-02
   470 Broy./Diag. 0.10E+00    5.2     0.06666840       -74.9011340669 -2.03E-01
   471 Broy./Diag. 0.10E+00    5.3     0.05380128       -74.9527753927 -5.16E-02
   472 Broy./Diag. 0.10E+00    5.3     0.06935834       -74.9200790509  3.27E-02
   473 Broy./Diag. 0.10E+00    5.2     0.06748048       -74.9194210401  6.58E-04
   474 Broy./Diag. 0.10E+00    5.3     0.05271651       -74.9047898200  1.46E-02
   475 Broy./Diag. 0.10E+00    5.2     0.08170119       -74.8620985192  4.27E-02
   476 Broy./Diag. 0.10E+00    5.2     0.04618304       -74.8635956280 -1.50E-03
   477 Broy./Diag. 0.10E+00    5.2     0.04034602       -74.8766669543 -1.31E-02
   478 Broy./Diag. 0.10E+00    5.2     0.03105210       -74.8635076315  1.32E-02
   479 Broy./Diag. 0.10E+00    5.2     0.06839130       -74.8810661249 -1.76E-02
   480 Broy./Diag. 0.10E+00    5.2     0.06442047       -74.8859824052 -4.92E-03
   481 Broy./Diag. 0.10E+00    5.2     0.05502532       -74.8918229837 -5.84E-03
   482 Broy./Diag. 0.10E+00    5.3     0.04127421       -74.8907698821  1.05E-03
   483 Broy./Diag. 0.10E+00    5.2     0.05396533       -74.8828671031  7.90E-03
   484 Broy./Diag. 0.10E+00    5.2     0.06716936       -74.8818603527  1.01E-03
   485 Broy./Diag. 0.10E+00    5.2     0.06919598       -74.8862653271 -4.40E-03
   486 Broy./Diag. 0.10E+00    5.3     0.08136242       -74.8986722906 -1.24E-02
   487 Broy./Diag. 0.10E+00    5.2     0.07944506       -74.9009905212 -2.32E-03
   488 Broy./Diag. 0.10E+00    5.4     0.06681136       -74.8815727118  1.94E-02
   489 Broy./Diag. 0.10E+00    5.2     0.06766139       -74.8655032472  1.61E-02
   490 Broy./Diag. 0.10E+00    5.2     0.06299618       -74.8498833482  1.56E-02
   491 Broy./Diag. 0.10E+00    5.2     0.06093469       -74.8385795773  1.13E-02
   492 Broy./Diag. 0.10E+00    5.2     0.05629076       -74.8247742755  1.38E-02
   493 Broy./Diag. 0.10E+00    5.2     0.09955878       -74.8071438315  1.76E-02
   494 Broy./Diag. 0.10E+00    5.2     0.10705832       -74.8004063962  6.74E-03
   495 Broy./Diag. 0.10E+00    5.2     0.07074578       -74.8037363326 -3.33E-03
   496 Broy./Diag. 0.10E+00    5.2     0.07676401       -74.7631889895  4.05E-02
   497 Broy./Diag. 0.10E+00    5.2     0.04849813       -74.7542809111  8.91E-03
   498 Broy./Diag. 0.10E+00    5.2     0.03505059       -74.7547204130 -4.40E-04
   499 Broy./Diag. 0.10E+00    5.3     0.06618831       -74.7884918599 -3.38E-02
   500 Broy./Diag. 0.10E+00    5.3     0.07075645       -74.7946975549 -6.21E-03

  Leaving inner SCF loop after reaching   500 steps.


  Electronic density on regular grids:         -8.7760903563        3.2239096437
  Core density on regular grids:               12.0000000000        0.0000000000
  Hard and soft densities (Lebedev):          -21.9083212511      -18.6830800590
  Total Rho_soft + Rho1_hard - Rho1_soft      -12.0013315485
  Total charge density (r-space):              -0.0013315485
  Total Rho_soft + Rho0_soft (g-space):        -0.0013316384

  Overlap energy of the core charge distribution:               0.00003125550742
  Self energy of the core charge distribution:                -58.22549323810243
  Core Hamiltonian energy:                                    -14.18403773818463
  Hartree energy:                                              16.68334201128760
  Exchange-correlation energy:                                 -2.97548633675160
  Hartree-Fock Exchange energy:                                -2.56795351243902

  GAPW| Exc from hard and soft atomic rho1:                    -5.01567689729117
  GAPW| local Eh = 1 center integrals:                         -8.50942309887894

  Total energy:                                               -74.79469755485279

 *******************************************************************************
 *   ___                                                                       *
 *  /   \                                                                      *
 * [ABORT]                                                                     *
 *  \___/     SCF run NOT converged. To continue the calculation regardless,   *
 *    |             please set the keyword IGNORE_CONVERGENCE_FAILURE.         *
 *  O/|                                                                        *
 * /| |                                                                        *
 * / \                                                            qs_scf.F:611 *
 *******************************************************************************


 ===== Routine Calling Stack ===== 

            3 scf_env_do_scf
            2 qs_energies
            1 CP2K

 *******************************************************************************
 *   ___                                                                       *
 *  /   \                                                                      *
 * [ABORT]                                                                     *
 *  \___/     SCF run NOT converged. To continue the calculation regardless,   *
 *    |             please set the keyword IGNORE_CONVERGENCE_FAILURE.         *
 *  O/|                                                                        *
 * /| |                                                                        *
 * / \                                                            qs_scf.F:611 *
 *******************************************************************************


 ===== Routine Calling Stack ===== 

            3 scf_env_do_scf
            2 qs_energies
            1 CP2K

 *******************************************************************************
 *   ___                                                                       *
 *  /   \                                                                      *
 * [ABORT]                                                                     *
 *  \___/     SCF run NOT converged. To continue the calculation regardless,   *
 *    |             please set the keyword IGNORE_CONVERGENCE_FAILURE.         *
 *  O/|                                                                        *
 * /| |                                                                        *
 * / \                                                            qs_scf.F:611 *
 *******************************************************************************


 ===== Routine Calling Stack ===== 

            3 scf_env_do_scf
            2 qs_energies
            1 CP2K

 *******************************************************************************
 *   ___                                                                       *
 *  /   \                                                                      *
 * [ABORT]                                                                     *
 *  \___/     SCF run NOT converged. To continue the calculation regardless,   *
 *    |             please set the keyword IGNORE_CONVERGENCE_FAILURE.         *
 *  O/|                                                                        *
 * /| |                                                                        *
 * / \                                                            qs_scf.F:611 *
 *******************************************************************************


 ===== Routine Calling Stack ===== 

            3 scf_env_do_scf
            2 qs_energies
            1 CP2K

 *******************************************************************************
 *   ___                                                                       *
 *  /   \                                                                      *
 * [ABORT]                                                                     *
 *  \___/     SCF run NOT converged. To continue the calculation regardless,   *
 *    |             please set the keyword IGNORE_CONVERGENCE_FAILURE.         *
 *  O/|                                                                        *
 * /| |                                                                        *
 * / \                                                            qs_scf.F:611 *
 *******************************************************************************


 ===== Routine Calling Stack ===== 

            3 scf_env_do_scf
            2 qs_energies
            1 CP2K

 *******************************************************************************
 *   ___                                                                       *
 *  /   \                                                                      *
 * [ABORT]                                                                     *
 *  \___/     SCF run NOT converged. To continue the calculation regardless,   *
 *    |             please set the keyword IGNORE_CONVERGENCE_FAILURE.         *
 *  O/|                                                                        *
 * /| |                                                                        *
 * / \                                                            qs_scf.F:611 *
 *******************************************************************************


 ===== Routine Calling Stack ===== 

            3 scf_env_do_scf
            2 qs_energies
            1 CP2K

 *******************************************************************************
 *   ___                                                                       *
 *  /   \                                                                      *
 * [ABORT]                                                                     *
 *  \___/     SCF run NOT converged. To continue the calculation regardless,   *
 *    |             please set the keyword IGNORE_CONVERGENCE_FAILURE.         *
 *  O/|                                                                        *
 * /| |                                                                        *
 * / \                                                            qs_scf.F:611 *
 *******************************************************************************


 ===== Routine Calling Stack ===== 

            3 scf_env_do_scf
            2 qs_energies
            1 CP2K

 *******************************************************************************
 *   ___                                                                       *
 *  /   \                                                                      *
 * [ABORT]                                                                     *
 *  \___/     SCF run NOT converged. To continue the calculation regardless,   *
 *    |             please set the keyword IGNORE_CONVERGENCE_FAILURE.         *
 *  O/|                                                                        *
 * /| |                                                                        *
 * / \                                                            qs_scf.F:611 *
 *******************************************************************************


 ===== Routine Calling Stack ===== 

            3 scf_env_do_scf
            2 qs_energies
            1 CP2K

 *******************************************************************************
 *   ___                                                                       *
 *  /   \                                                                      *
 * [ABORT]                                                                     *
 *  \___/     SCF run NOT converged. To continue the calculation regardless,   *
 *    |             please set the keyword IGNORE_CONVERGENCE_FAILURE.         *
 *  O/|                                                                        *
 * /| |                                                                        *
 * / \                                                            qs_scf.F:611 *
 *******************************************************************************


 ===== Routine Calling Stack ===== 

            3 scf_env_do_scf
            2 qs_energies
            1 CP2K

 *******************************************************************************
 *   ___                                                                       *
 *  /   \                                                                      *
 * [ABORT]                                                                     *
 *  \___/     SCF run NOT converged. To continue the calculation regardless,   *
 *    |             please set the keyword IGNORE_CONVERGENCE_FAILURE.         *
 *  O/|                                                                        *
 * /| |                                                                        *
 * / \                                                            qs_scf.F:611 *
 *******************************************************************************


 ===== Routine Calling Stack ===== 

            3 scf_env_do_scf
            2 qs_energies
            1 CP2K

 *******************************************************************************
 *   ___                                                                       *
 *  /   \                                                                      *
 * [ABORT]                                                                     *
 *  \___/     SCF run NOT converged. To continue the calculation regardless,   *
 *    |             please set the keyword IGNORE_CONVERGENCE_FAILURE.         *
 *  O/|                                                                        *
 * /| |                                                                        *
 * / \                                                            qs_scf.F:611 *
 *******************************************************************************


 ===== Routine Calling Stack ===== 

            3 scf_env_do_scf
            2 qs_energies
            1 CP2K

 *******************************************************************************
 *   ___                                                                       *
 *  /   \                                                                      *
 * [ABORT]                                                                     *
 *  \___/     SCF run NOT converged. To continue the calculation regardless,   *
 *    |             please set the keyword IGNORE_CONVERGENCE_FAILURE.         *
 *  O/|                                                                        *
 * /| |                                                                        *
 * / \                                                            qs_scf.F:611 *
 *******************************************************************************


 ===== Routine Calling Stack ===== 

            3 scf_env_do_scf
            2 qs_energies
            1 CP2K

 *******************************************************************************
 *   ___                                                                       *
 *  /   \                                                                      *
 * [ABORT]                                                                     *
 *  \___/     SCF run NOT converged. To continue the calculation regardless,   *
 *    |             please set the keyword IGNORE_CONVERGENCE_FAILURE.         *
 *  O/|                                                                        *
 * /| |                                                                        *
 * / \                                                            qs_scf.F:611 *
 *******************************************************************************


 ===== Routine Calling Stack ===== 

            3 scf_env_do_scf
            2 qs_energies
            1 CP2K
