 DBCSR| CPU Multiplication driver                                           BLAS (U)
 DBCSR| Multrec recursion limit                                              512 (U)
 DBCSR| Multiplication stack size                                           1000 (D)
 DBCSR| Maximum elements for images                                    UNLIMITED (U)
 DBCSR| Multiplicative factor virtual images                                   1 (U)
 DBCSR| Use multiplication densification                                       T (D)
 DBCSR| Multiplication size stacks                                             3 (U)
 DBCSR| Use memory pool for CPU allocation                                     F (U)
 DBCSR| Number of 3D layers                                               SINGLE (U)
 DBCSR| Use MPI memory allocation                                              F (U)
 DBCSR| Use RMA algorithm                                                      F (U)
 DBCSR| Use Communication thread                                               T (U)
 DBCSR| Communication thread load                                             75 (D)
 DBCSR| MPI: My process id                                                     0
 DBCSR| MPI: Number of processes                                              24
 DBCSR| OMP: Current number of threads                                         4
 DBCSR| OMP: Max number of threads                                             4
 DBCSR| Split modifier for TAS multiplication algorithm                  1.0E+00 (U)


  **** **** ******  **  PROGRAM STARTED AT               2025-03-03 00:18:10.692
 ***** ** ***  *** **   PROGRAM STARTED ON                          i02r02c04s01
 **    ****   ******    PROGRAM STARTED BY                               di38fab
 ***** **    ** ** **   PROGRAM PROCESS ID                                939245
  **** **  *******  **  PROGRAM STARTED IN /hppfs/scratch/04/di38fab/05_MOL/W4-1
                                           1+ALK/c2/SZV

 CP2K| version string:                 CP2K version 2025.1 (Development Version)
 CP2K| source code revision number:                                  git:47877ba
 CP2K| cp2kflags: omp libint fftw3 libxc parallel scalapack max_contr=4         
 CP2K| is freely available from                            https://www.cp2k.org/
 CP2K| Program compiled at                          Thu Feb 20 16:00:34 CET 2025
 CP2K| Program compiled on                                               login04
 CP2K| Program compiled for                                        Supermuc-foss
 CP2K| Data directory path          /hppfs/work/pn36zo/di38fab/newcp2k/cp2k/data
 CP2K| Input file name                                                    GW.inp

 GLOBAL| Force Environment number                                              1
 GLOBAL| Basis set file name            /hppfs/scratch/04/di38fab/04_TMD/BASIS_A
 GLOBAL| Potential file name            /hppfs/work/pn36zo/di38fab/cp2k/data/ALL
 GLOBAL| MM Potential file name                                     MM_POTENTIAL
 GLOBAL| Coordinate file name                                      __STD_INPUT__
 GLOBAL| Method name                                                        CP2K
 GLOBAL| Project name                                                       MoS2
 GLOBAL| Run type                                                         ENERGY
 GLOBAL| FFT library                                                       FFTW3
 GLOBAL| Diagonalization library                                       ScaLAPACK
 GLOBAL| DGEMM library                                                      BLAS
 GLOBAL| Orthonormality check for eigenvectors                          DISABLED
 GLOBAL| Matrix multiplication library                                 ScaLAPACK
 GLOBAL| All-to-all communication in single precision                          F
 GLOBAL| FFTs using library dependent lengths                                  F
 GLOBAL| Grid backend                                                       AUTO
 GLOBAL| Global print level                                               MEDIUM
 GLOBAL| MPI I/O enabled                                                       T
 GLOBAL| Total number of message passing processes                            24
 GLOBAL| Number of threads for this process                                    4
 GLOBAL| This output is from process                                           0
 GLOBAL| OpenMP stack size per thread (OMP_STACKSIZE)                    default
 GLOBAL| CPU model name             Intel(R) Xeon(R) Platinum 8174 CPU @ 3.10GHz

 MEMORY| system memory details [Kb]
 MEMORY|                        rank 0           min           max       average
 MEMORY| MemTotal             98436664      98436664      98436664      98436664
 MEMORY| MemFree              84031624      84031624      84096192      84063908
 MEMORY| Buffers                     0             0             0             0
 MEMORY| Cached                2442424       2441280       2442424       2441852
 MEMORY| Slab                  1231068       1228360       1231068       1229714
 MEMORY| SReclaimable           263700        263052        263700        263376
 MEMORY| MemLikelyFree        86737748      86737748      86800524      86769136


 *** Fundamental physical constants (SI units) ***

 *** Literature: B. J. Mohr and B. N. Taylor,
 ***             CODATA recommended values of the fundamental physical
 ***             constants: 2006, Web Version 5.1
 ***             http://physics.nist.gov/constants

 Speed of light in vacuum [m/s]                             2.99792458000000E+08
 Magnetic constant or permeability of vacuum [N/A**2]       1.25663706143592E-06
 Electric constant or permittivity of vacuum [F/m]          8.85418781762039E-12
 Planck constant (h) [J*s]                                  6.62606896000000E-34
 Planck constant (h-bar) [J*s]                              1.05457162825177E-34
 Elementary charge [C]                                      1.60217648700000E-19
 Electron mass [kg]                                         9.10938215000000E-31
 Electron g factor [ ]                                     -2.00231930436220E+00
 Proton mass [kg]                                           1.67262163700000E-27
 Fine-structure constant                                    7.29735253760000E-03
 Rydberg constant [1/m]                                     1.09737315685270E+07
 Avogadro constant [1/mol]                                  6.02214179000000E+23
 Boltzmann constant [J/K]                                   1.38065040000000E-23
 Atomic mass unit [kg]                                      1.66053878200000E-27
 Bohr radius [m]                                            5.29177208590000E-11

 *** Conversion factors ***

 [u] -> [a.u.]                                              1.82288848426455E+03
 [Angstrom] -> [Bohr] = [a.u.]                              1.88972613288564E+00
 [a.u.] = [Bohr] -> [Angstrom]                              5.29177208590000E-01
 [a.u.] -> [s]                                              2.41888432650478E-17
 [a.u.] -> [fs]                                             2.41888432650478E-02
 [a.u.] -> [J]                                              4.35974393937059E-18
 [a.u.] -> [N]                                              8.23872205491840E-08
 [a.u.] -> [K]                                              3.15774647902944E+05
 [a.u.] -> [kJ/mol]                                         2.62549961709828E+03
 [a.u.] -> [kcal/mol]                                       6.27509468713739E+02
 [a.u.] -> [Pa]                                             2.94210107994716E+13
 [a.u.] -> [bar]                                            2.94210107994716E+08
 [a.u.] -> [atm]                                            2.90362800883016E+08
 [a.u.] -> [eV]                                             2.72113838565563E+01
 [a.u.] -> [Hz]                                             6.57968392072181E+15
 [a.u.] -> [1/cm] (wave numbers)                            2.19474631370540E+05
 [a.u./Bohr**2] -> [1/cm]                                   5.14048714338585E+03
 

 CELL_TOP| Volume [angstrom^3]:                                     27000.000000
 CELL_TOP| Vector a [angstrom    30.000     0.000     0.000   |a| =    30.000000
 CELL_TOP| Vector b [angstrom     0.000    30.000     0.000   |b| =    30.000000
 CELL_TOP| Vector c [angstrom     0.000     0.000    30.000   |c| =    30.000000
 CELL_TOP| Angle (b,c), alpha [degree]:                                90.000000
 CELL_TOP| Angle (a,c), beta  [degree]:                                90.000000
 CELL_TOP| Angle (a,b), gamma [degree]:                                90.000000
 CELL_TOP| Numerically orthorhombic:                                         YES
 CELL_TOP| Periodicity                                                      NONE

 GENERATE|  Preliminary Number of Bonds generated:                             0
 GENERATE|  Achieved consistency in connectivity generation.

 CELL| Volume [angstrom^3]:                                         27000.000000
 CELL| Vector a [angstrom]:      30.000     0.000     0.000   |a| =    30.000000
 CELL| Vector b [angstrom]:       0.000    30.000     0.000   |b| =    30.000000
 CELL| Vector c [angstrom]:       0.000     0.000    30.000   |c| =    30.000000
 CELL| Angle (b,c), alpha [degree]:                                    90.000000
 CELL| Angle (a,c), beta  [degree]:                                    90.000000
 CELL| Angle (a,b), gamma [degree]:                                    90.000000
 CELL| Numerically orthorhombic:                                             YES
 CELL| Periodicity                                                          NONE

 CELL_REF| Volume [angstrom^3]:                                     27000.000000
 CELL_REF| Vector a [angstrom    30.000     0.000     0.000   |a| =    30.000000
 CELL_REF| Vector b [angstrom     0.000    30.000     0.000   |b| =    30.000000
 CELL_REF| Vector c [angstrom     0.000     0.000    30.000   |c| =    30.000000
 CELL_REF| Angle (b,c), alpha [degree]:                                90.000000
 CELL_REF| Angle (a,c), beta  [degree]:                                90.000000
 CELL_REF| Angle (a,b), gamma [degree]:                                90.000000
 CELL_REF| Numerically orthorhombic:                                         YES
 CELL_REF| Periodicity                                                      NONE

 *******************************************************************************
 *******************************************************************************
 **                                                                           **
 **     #####                         ##              ##                      **
 **    ##   ##            ##          ##              ##                      **
 **   ##     ##                       ##            ######                    **
 **   ##     ##  ##   ##  ##   #####  ##  ##   ####   ##    #####    #####    **
 **   ##     ##  ##   ##  ##  ##      ## ##   ##      ##   ##   ##  ##   ##   **
 **   ##  ## ##  ##   ##  ##  ##      ####     ###    ##   ######   ######    **
 **    ##  ###   ##   ##  ##  ##      ## ##      ##   ##   ##       ##        **
 **     #######   #####   ##   #####  ##  ##  ####    ##    #####   ##        **
 **           ##                                                    ##        **
 **                                                                           **
 **                                                ... make the atoms dance   **
 **                                                                           **
 **            Copyright (C) by CP2K developers group (2000-2025)             **
 **                      J. Chem. Phys. 152, 194103 (2020)                    **
 **                                                                           **
 *******************************************************************************

 DFT| Spin restricted Kohn-Sham (RKS) calculation                            RKS
 DFT| Multiplicity                                                             1
 DFT| Number of spin states                                                    1
 DFT| Charge                                                                   0
 DFT| Self-interaction correction (SIC)                                       NO
 DFT| Cutoffs: density                                              1.000000E-10
 DFT|          gradient                                             1.000000E-10
 DFT|          tau                                                  1.000000E-10
 DFT|          cutoff_smoothing_range                               0.000000E+00
 DFT| XC density smoothing                                                  NONE
 DFT| XC derivatives                                                          PW

 FUNCTIONAL| PBE:
 FUNCTIONAL| J.P.Perdew, K.Burke, M.Ernzerhof, Phys. Rev. Letter, vol. 77, n 18,
 FUNCTIONAL|  pp. 3865-3868, (1996)sx=0.750sc=1.000{spin unpolarized}           


 QS| Method:                                                                GAPW
 QS| Density plane wave grid type                        NON-SPHERICAL FULLSPACE
 QS| Number of grid levels:                                                    4
 QS| Density cutoff [a.u.]:                                                250.0
 QS| Multi grid cutoff [a.u.]: 1) grid level                               250.0
 QS|                           2) grid level                                83.3
 QS|                           3) grid level                                27.8
 QS|                           4) grid level                                 9.3
 QS| Grid level progression factor:                                          3.0
 QS| Relative density cutoff [a.u.]:                                        50.0
 QS| Interaction thresholds: eps_pgf_orb:                                1.0E-12
 QS|                         eps_filter_matrix:                          0.0E+00
 QS|                         eps_core_charge:                            1.0E-14
 QS|                         eps_rho_gspace:                             1.0E-12
 QS|                         eps_rho_rspace:                             1.0E-12
 QS|                         eps_gvg_rspace:                             1.0E-06
 QS|                         eps_ppl:                                    1.0E-02
 QS|                         eps_ppnl:                                   1.0E-08
 QS| GAPW|      One center basis from orbital basis primitives
 QS| GAPW|                   eps_fit:                                    1.0E-04
 QS| GAPW|                   eps_iso:                                    1.0E-12
 QS| GAPW|                   eps_svd:                                    1.0E-08
 QS| GAPW|                   eps_cpc:                                    1.0E-12
 QS| GAPW|   atom-r-grid: quadrature:                                     GC_LOG
 QS| GAPW|      atom-s-grid:  max l :                                          4
 QS| GAPW|      max_l_rho0 :                                                   2


 ATOMIC KIND INFORMATION

  1. Atomic kind: C                                     Number of atoms:       2

     Orbital Basis Set                                         aug-SZV-MOLOPT-ae

       Number of orbital shell sets:                                           2
       Number of orbital shells:                                               6
       Number of primitive Cartesian functions:                               13
       Number of Cartesian basis functions:                                   15
       Number of spherical basis functions:                                   14
       Norm type:                                                              2

       Normalised Cartesian orbitals:

                        Set   Shell   Orbital            Exponent    Coefficient

                          1       1    2s                0.070000       0.000000
                                                         0.143687       0.040037
                                                         0.313471       0.177689
                                                         0.721783       0.139661
                                                         1.876046      -0.038599
                                                         6.036200      -0.128975
                                                        30.497239      -0.122578

                          1       2    3s                0.070000      -0.142268
                                                         0.143687       0.288819
                                                         0.313471       0.010360
                                                         0.721783       0.175994
                                                         1.876046       0.000000
                                                         6.036200       0.000000
                                                        30.497239       0.000000

                          1       3    3px               0.070000       0.000000
                                                         0.143687       0.012825
                                                         0.313471       0.142381
                                                         0.721783       0.396426
                                                         1.876046       0.544234
                                                         6.036200       0.508157
                                                        30.497239       0.384077
                          1       3    3py               0.070000       0.000000
                                                         0.143687       0.012825
                                                         0.313471       0.142381
                                                         0.721783       0.396426
                                                         1.876046       0.544234
                                                         6.036200       0.508157
                                                        30.497239       0.384077
                          1       3    3pz               0.070000       0.000000
                                                         0.143687       0.012825
                                                         0.313471       0.142381
                                                         0.721783       0.396426
                                                         1.876046       0.544234
                                                         6.036200       0.508157
                                                        30.497239       0.384077

                          1       4    4px               0.070000       0.076505
                                                         0.143687      -0.086104
                                                         0.313471       0.010230
                                                         0.721783       0.129894
                                                         1.876046       0.000000
                                                         6.036200       0.000000
                                                        30.497239       0.000000
                          1       4    4py               0.070000       0.076505
                                                         0.143687      -0.086104
                                                         0.313471       0.010230
                                                         0.721783       0.129894
                                                         1.876046       0.000000
                                                         6.036200       0.000000
                                                        30.497239       0.000000
                          1       4    4pz               0.070000       0.076505
                                                         0.143687      -0.086104
                                                         0.313471       0.010230
                                                         0.721783       0.129894
                                                         1.876046       0.000000
                                                         6.036200       0.000000
                                                        30.497239       0.000000

                          1       5    4dx2              0.070000       0.004316
                                                         0.143687       0.012639
                                                         0.313471       0.125057
                                                         0.721783       0.080411
                                                         1.876046       0.000000
                                                         6.036200       0.000000
                                                        30.497239       0.000000
                          1       5    4dxy              0.070000       0.007476
                                                         0.143687       0.021892
                                                         0.313471       0.216606
                                                         0.721783       0.139276
                                                         1.876046       0.000000
                                                         6.036200       0.000000
                                                        30.497239       0.000000
                          1       5    4dxz              0.070000       0.007476
                                                         0.143687       0.021892
                                                         0.313471       0.216606
                                                         0.721783       0.139276
                                                         1.876046       0.000000
                                                         6.036200       0.000000
                                                        30.497239       0.000000
                          1       5    4dy2              0.070000       0.004316
                                                         0.143687       0.012639
                                                         0.313471       0.125057
                                                         0.721783       0.080411
                                                         1.876046       0.000000
                                                         6.036200       0.000000
                                                        30.497239       0.000000
                          1       5    4dyz              0.070000       0.007476
                                                         0.143687       0.021892
                                                         0.313471       0.216606
                                                         0.721783       0.139276
                                                         1.876046       0.000000
                                                         6.036200       0.000000
                                                        30.497239       0.000000
                          1       5    4dz2              0.070000       0.004316
                                                         0.143687       0.012639
                                                         0.313471       0.125057
                                                         0.721783       0.080411
                                                         1.876046       0.000000
                                                         6.036200       0.000000
                                                        30.497239       0.000000

                          2       1    1s              742.737049       0.929185
                                                       136.180025       1.402437
                                                        38.098264       1.841991
                                                        13.087782       1.817278
                                                         5.082369       1.004768
                                                         2.093200       0.161650

     RI Auxiliary Basis Set             RI_aug-SZV-MOLOPT-ae-SR_N_RI_029_s_p_d_f

       Number of orbital shell sets:                                          11
       Number of orbital shells:                                              11
       Number of primitive Cartesian functions:                               11
       Number of Cartesian basis functions:                                   33
       Number of spherical basis functions:                                   29
       Norm type:                                                              2

       Normalised Cartesian orbitals:

                        Set   Shell   Orbital            Exponent    Coefficient

                          1       1    1s                0.275993       0.271384

                          2       1   10dx2              0.587304       0.648514
                          2       1   10dxy              0.587304       1.123259
                          2       1   10dxz              0.587304       1.123259
                          2       1   10dy2              0.587304       0.648514
                          2       1   10dyz              0.587304       1.123259
                          2       1   10dz2              0.587304       0.648514

                          3       1    6px               0.658795       0.846014
                          3       1    6py               0.658795       0.846014
                          3       1    6pz               0.658795       0.846014

                          4       1   11fx3              1.035652       1.592888
                          4       1   11fx2y             1.035652       3.561805
                          4       1   11fx2z             1.035652       3.561805
                          4       1   11fxy2             1.035652       3.561805
                          4       1   11fxyz             1.035652       6.169228
                          4       1   11fxz2             1.035652       3.561805
                          4       1   11fy3              1.035652       1.592888
                          4       1   11fy2z             1.035652       3.561805
                          4       1   11fyz2             1.035652       3.561805
                          4       1   11fz3              1.035652       1.592888

                          5       1    2s                1.092384       0.761538

                          6       1    7px               2.333195       4.110351
                          6       1    7py               2.333195       4.110351
                          6       1    7pz               2.333195       4.110351

                          7       1    3s                4.901987       2.347952

                          8       1    8px               6.348185      14.363228
                          8       1    8py               6.348185      14.363228
                          8       1    8pz               6.348185      14.363228

                          9       1    9px              17.637872      51.522606
                          9       1    9py              17.637872      51.522606
                          9       1    9pz              17.637872      51.522606

                         10       1    4s               20.273074       6.809258

                         11       1    5s               80.835140      19.213666

       Atomic covalent radius [Angstrom]:                                  0.770

       Atomic van der Waals radius [Angstrom]:                             1.700

     The atoms of this atomic kind are PAW atoms (GAPW):
       Hard Gaussian function radius:                                      1.512
       Rho0 radius:                                                        1.512
       Maximum GTO radius used for PAW projector construction:            24.566

     GAPW Soft Basis Set                                  aug-SZV-MOLOPT-ae_soft

       Number of orbital shell sets:                                           2
       Number of orbital shells:                                               6
       Number of primitive Cartesian functions:                                6
       Number of Cartesian basis functions:                                   15
       Number of spherical basis functions:                                   14
       Norm type:                                                              2

       Normalised Cartesian orbitals:

                        Set   Shell   Orbital            Exponent    Coefficient

                          1       1    2s                0.070000       0.000000
                                                         0.143687       0.040037
                                                         0.313471       0.177689
                                                         0.721783       0.139661
                                                         1.876046      -0.038599

                          1       2    3s                0.070000      -0.142268
                                                         0.143687       0.288819
                                                         0.313471       0.010360
                                                         0.721783       0.175994
                                                         1.876046       0.000000

                          1       3    3px               0.070000       0.000000
                                                         0.143687       0.012825
                                                         0.313471       0.142381
                                                         0.721783       0.396426
                                                         1.876046       0.544234
                          1       3    3py               0.070000       0.000000
                                                         0.143687       0.012825
                                                         0.313471       0.142381
                                                         0.721783       0.396426
                                                         1.876046       0.544234
                          1       3    3pz               0.070000       0.000000
                                                         0.143687       0.012825
                                                         0.313471       0.142381
                                                         0.721783       0.396426
                                                         1.876046       0.544234

                          1       4    4px               0.070000       0.076505
                                                         0.143687      -0.086104
                                                         0.313471       0.010230
                                                         0.721783       0.129894
                                                         1.876046       0.000000
                          1       4    4py               0.070000       0.076505
                                                         0.143687      -0.086104
                                                         0.313471       0.010230
                                                         0.721783       0.129894
                                                         1.876046       0.000000
                          1       4    4pz               0.070000       0.076505
                                                         0.143687      -0.086104
                                                         0.313471       0.010230
                                                         0.721783       0.129894
                                                         1.876046       0.000000

                          1       5    4dx2              0.070000       0.004316
                                                         0.143687       0.012639
                                                         0.313471       0.125057
                                                         0.721783       0.080411
                                                         1.876046       0.000000
                          1       5    4dxy              0.070000       0.007476
                                                         0.143687       0.021892
                                                         0.313471       0.216606
                                                         0.721783       0.139276
                                                         1.876046       0.000000
                          1       5    4dxz              0.070000       0.007476
                                                         0.143687       0.021892
                                                         0.313471       0.216606
                                                         0.721783       0.139276
                                                         1.876046       0.000000
                          1       5    4dy2              0.070000       0.004316
                                                         0.143687       0.012639
                                                         0.313471       0.125057
                                                         0.721783       0.080411
                                                         1.876046       0.000000
                          1       5    4dyz              0.070000       0.007476
                                                         0.143687       0.021892
                                                         0.313471       0.216606
                                                         0.721783       0.139276
                                                         1.876046       0.000000
                          1       5    4dz2              0.070000       0.004316
                                                         0.143687       0.012639
                                                         0.313471       0.125057
                                                         0.721783       0.080411
                                                         1.876046       0.000000

                          2       1    1s                2.093200       0.161650

     AE Potential information for                                            ALL

       Description:                                       All-electron potential
                                          Krack, Parrinello, PCCP 2, 2105 (2000)

       Gaussian exponent of the core charge distribution:               4.109048
       Electronic configuration (s p d ...):                           4   2   0


 MOLECULE KIND INFORMATION


 All atoms are their own molecule, skipping detailed information


 TOTAL NUMBERS AND MAXIMUM NUMBERS

  Total number of            - Atomic kinds:                                   1
                             - Atoms:                                          2
                             - Shell sets:                                     4
                             - Shells:                                        12
                             - Primitive Cartesian functions:                 26
                             - Cartesian basis functions:                     30
                             - Spherical basis functions:                     28

  Maximum angular momentum of the orbital basis functions:                     2


 MODULE QUICKSTEP: ATOMIC COORDINATES IN ANGSTROM

   Atom Kind Element         X             Y             Z       Z(eff)     Mass
      1    1 C     6     15.620000     15.000000     15.000000   6.0000  12.0107
      2    1 C     6     14.380000     15.000000     15.000000   6.0000  12.0107



 SCF PARAMETERS         Density guess:                                    ATOMIC
                        --------------------------------------------------------
                        max_scf:                                             500
                        max_scf_history:                                       0
                        max_diis:                                              4
                        --------------------------------------------------------
                        eps_scf:                                        1.00E-06
                        eps_scf_history:                                0.00E+00
                        eps_diis:                                       1.00E-01
                        eps_eigval:                                     1.00E-05
                        --------------------------------------------------------
                        level_shift [a.u.]:                             0.000000
                        added MOs                                        22    0
                        --------------------------------------------------------
                        Mixing method:                            BROYDEN_MIXING
                                                charge density mixing in g-space
                        --------------------------------------------------------
                        No outer SCF

 PW_GRID| Information for grid number                                          1
 PW_GRID| Grid distributed over                                    24 processors
 PW_GRID| Real space group dimensions                                    24    1
 PW_GRID| the grid is blocked:                                                NO
 PW_GRID| Cutoff [a.u.]                                                    250.0
 PW_GRID| spherical cutoff:                                                   NO
 PW_GRID|   Bounds   1           -202     202                Points:         405
 PW_GRID|   Bounds   2           -202     202                Points:         405
 PW_GRID|   Bounds   3           -202     202                Points:         405
 PW_GRID| Volume element (a.u.^3)  0.2743E-02     Volume (a.u.^3)    182205.0337
 PW_GRID| Grid span                                                    FULLSPACE
 PW_GRID|   Distribution                         Average         Max         Min
 PW_GRID|   G-Vectors                          2767921.9     2768175     2767770
 PW_GRID|   G-Rays                                6834.4        6835        6834
 PW_GRID|   Real Space Points                  2767921.9     2788425     2624400

 PW_GRID| Information for grid number                                          2
 PW_GRID| Number of the reference grid                                         1
 PW_GRID| Grid distributed over                                    24 processors
 PW_GRID| Real space group dimensions                                    24    1
 PW_GRID| the grid is blocked:                                                NO
 PW_GRID| Cutoff [a.u.]                                                     83.3
 PW_GRID| spherical cutoff:                                                   NO
 PW_GRID|   Bounds   1           -120     119                Points:         240
 PW_GRID|   Bounds   2           -120     119                Points:         240
 PW_GRID|   Bounds   3           -120     119                Points:         240
 PW_GRID| Volume element (a.u.^3)  0.1318E-01     Volume (a.u.^3)    182205.0337
 PW_GRID| Grid span                                                    FULLSPACE
 PW_GRID|   Distribution                         Average         Max         Min
 PW_GRID|   G-Vectors                           576000.0      576240      575760
 PW_GRID|   G-Rays                                2400.0        2401        2399
 PW_GRID|   Real Space Points                   576000.0      576000      576000

 PW_GRID| Information for grid number                                          3
 PW_GRID| Number of the reference grid                                         1
 PW_GRID| Grid distributed over                                    24 processors
 PW_GRID| Real space group dimensions                                    24    1
 PW_GRID| the grid is blocked:                                                NO
 PW_GRID| Cutoff [a.u.]                                                     27.8
 PW_GRID| spherical cutoff:                                                   NO
 PW_GRID|   Bounds   1            -67      67                Points:         135
 PW_GRID|   Bounds   2            -67      67                Points:         135
 PW_GRID|   Bounds   3            -67      67                Points:         135
 PW_GRID| Volume element (a.u.^3)  0.7406E-01     Volume (a.u.^3)    182205.0337
 PW_GRID| Grid span                                                    FULLSPACE
 PW_GRID|   Distribution                         Average         Max         Min
 PW_GRID|   G-Vectors                           102515.6      102735      102330
 PW_GRID|   G-Rays                                 759.4         761         758
 PW_GRID|   Real Space Points                   102515.6      109350       91125

 PW_GRID| Information for grid number                                          4
 PW_GRID| Number of the reference grid                                         1
 PW_GRID| Grid distributed over                                    24 processors
 PW_GRID| Real space group dimensions                                    24    1
 PW_GRID| the grid is blocked:                                                NO
 PW_GRID| Cutoff [a.u.]                                                      9.3
 PW_GRID| spherical cutoff:                                                   NO
 PW_GRID|   Bounds   1            -40      39                Points:          80
 PW_GRID|   Bounds   2            -40      39                Points:          80
 PW_GRID|   Bounds   3            -40      39                Points:          80
 PW_GRID| Volume element (a.u.^3)  0.3559         Volume (a.u.^3)    182205.0337
 PW_GRID| Grid span                                                    FULLSPACE
 PW_GRID|   Distribution                         Average         Max         Min
 PW_GRID|   G-Vectors                            21333.3       21360       21280
 PW_GRID|   G-Rays                                 266.7         267         266
 PW_GRID|   Real Space Points                    21333.3       25600       19200

 POISSON| Solver                                                         WAVELET
 POISSON| Wavelet| Scaling function                                           40
 POISSON| Periodicity                                                       NONE

 RS_GRID| Information for grid number                                          1
 RS_GRID|   Bounds   1           -202     202                Points:         405
 RS_GRID|   Bounds   2           -202     202                Points:         405
 RS_GRID|   Bounds   3           -202     202                Points:         405
 RS_GRID| Real space distribution over                                  4 groups
 RS_GRID| Real space distribution along direction                              2
 RS_GRID| Border size                                                         33
 RS_GRID| Real space distribution over                                  6 groups
 RS_GRID| Real space distribution along direction                              3
 RS_GRID| Border size                                                         33
 RS_GRID|   Distribution                         Average         Max         Min
 RS_GRID|   Planes                                 167.2         168         167
 RS_GRID|   Distribution                         Average         Max         Min
 RS_GRID|   Planes                                 133.5         134         133

 RS_GRID| Information for grid number                                          2
 RS_GRID|   Bounds   1           -120     119                Points:         240
 RS_GRID|   Bounds   2           -120     119                Points:         240
 RS_GRID|   Bounds   3           -120     119                Points:         240
 RS_GRID| Real space distribution over                                  4 groups
 RS_GRID| Real space distribution along direction                              2
 RS_GRID| Border size                                                         35
 RS_GRID| Real space distribution over                                  6 groups
 RS_GRID| Real space distribution along direction                              3
 RS_GRID| Border size                                                         35
 RS_GRID|   Distribution                         Average         Max         Min
 RS_GRID|   Planes                                 130.0         130         130
 RS_GRID|   Distribution                         Average         Max         Min
 RS_GRID|   Planes                                 110.0         110         110

 RS_GRID| Information for grid number                                          3
 RS_GRID|   Bounds   1            -67      67                Points:         135
 RS_GRID|   Bounds   2            -67      67                Points:         135
 RS_GRID|   Bounds   3            -67      67                Points:         135
 RS_GRID| Real space fully replicated
 RS_GRID| Group size                                                           1

 RS_GRID| Information for grid number                                          4
 RS_GRID|   Bounds   1            -40      39                Points:          80
 RS_GRID|   Bounds   2            -40      39                Points:          80
 RS_GRID|   Bounds   3            -40      39                Points:          80
 RS_GRID| Real space fully replicated
 RS_GRID| Group size                                                           1

  HFX_INFO| Replica ID:                                                        1
  HFX_INFO| FRACTION:                                               0.2500000000
  HFX_INFO| Interaction Potential:                                       COULOMB
  HFX_INFO| EPS_SCHWARZ:                                                 1.0E-10
  HFX_INFO| EPS_SCHWARZ_FORCES                                           1.0E-08
  HFX_INFO| EPS_STORAGE_SCALING:                                         1.0E+00
  HFX_INFO| NBINS:                                                            64
  HFX_INFO| BLOCK_SIZE:                                                        1
  HFX_INFO| Number of periodic shells considered:                           NONE
  HFX_INFO| Number of periodic cells considered:                            NONE

 
 RI-RPA| using GPW style
 

 OVERLAP MATRIX CONDITION NUMBER
 1-Norm Condition Number (Estimate)
   CN : |A|*|A^-1|:  4.289E+000 *  1.449E+002   = 6.216E+002  Log(1-CN):  2.7935
 1-Norm and 2-Norm Condition Numbers using Diagonalization
   CN : |A|*|A^-1|:  4.289E+000 *  1.449E+002   = 6.216E+002  Log(1-CN):  2.7935
   CN : max/min ev:  3.122E+000 /  7.957E-003   = 3.923E+002  Log(2-CN):  2.5936

 Number of electrons:                                                         12
 Number of occupied orbitals:                                                  6
 Number of molecular orbitals:                                                28

 Number of orbital functions:                                                 28
 Number of independent orbital functions:                                     28

 Extrapolation method: initial_guess

 Atomic guess: The first density matrix is obtained in terms of atomic orbitals
               and electronic configurations assigned to each atomic kind

 Guess for atomic kind: C

 Electronic structure
    Total number of core electrons                                          0.00
    Total number of valence electrons                                       6.00
    Total number of electrons                                               6.00
    Multiplicity                                                   not specified
    S      2.00  2.00
    P      2.00


 *******************************************************************************
                  Iteration          Convergence                     Energy [au]
 *******************************************************************************
                          1        0.181972E-01                 -37.327047058214
                          2        0.113690E-01                 -37.327375013153
                          3        0.204442E-03                 -37.327563854518
                          4        0.318580E-06                 -37.327563914839

 Energy components [Hartree]           Total Energy ::          -37.327563914839
                                        Band Energy ::          -20.907151793925
                                     Kinetic Energy ::           37.918401132701
                                   Potential Energy ::          -75.245965047540
                                      Virial (-V/T) ::            1.984418192745
                                        Core Energy ::          -50.466619839572
                                          XC Energy ::           -4.803795746723
                                     Coulomb Energy ::           17.942851671456

 Orbital energies  State     L     Occupation   Energy[a.u.]          Energy[eV]

                       1     0          2.000      -9.826687         -267.397747
                       2     0          2.000      -0.471401          -12.827469

                       1     1          2.000      -0.155488           -4.231050


 Total Electron Density at R=0:                                       107.717880
 Re-scaling the density matrix to get the right number of electrons
                  # Electrons              Trace(P)               Scaling factor
                           12                12.000                        1.000


 SCF WAVEFUNCTION OPTIMIZATION

  Step     Update method      Time    Convergence         Total energy    Change
  ------------------------------------------------------------------------------

  HFX_MEM_INFO| Est. max. program size before HFX [MiB]:                    2135
  HFX_MEM_INFO| Number of cart. primitive ERI's calculated:            191263304
  HFX_MEM_INFO| Number of sph. ERI's calculated:                          230496
  HFX_MEM_INFO| Number of sph. ERI's stored in-core:                      230496
  HFX_MEM_INFO| Number of sph. ERI's stored on disk:                           0
  HFX_MEM_INFO| Number of sph. ERI's calculated on the fly:                    0
  HFX_MEM_INFO| Total memory consumption ERI's RAM [MiB]:                      2
  HFX_MEM_INFO| Whereof max-vals [MiB]:                                        1
  HFX_MEM_INFO| Total compression factor ERI's RAM:                         1.10
  HFX_MEM_INFO| Total memory consumption ERI's disk [MiB]:                     0
  HFX_MEM_INFO| Total compression factor ERI's disk:                        0.00
  HFX_MEM_INFO| Size of density/Fock matrix [MiB]:                             0
  HFX_MEM_INFO| Size of buffers [MiB]:                                         0
  HFX_MEM_INFO| Est. max. program size after HFX  [MiB]:                    2646

     1 NoMix/Diag. 0.10E+00    8.4     1.32591114       -75.7719229692 -7.58E+01
     2 Broy./Diag. 0.10E+00    4.7     0.07035765       -75.8326049100 -6.07E-02
     3 Broy./Diag. 0.10E+00    4.9     0.01253433       -75.8138421366  1.88E-02
     4 Broy./Diag. 0.10E+00    4.8     0.07463632       -75.4723750320  3.41E-01
     5 Broy./Diag. 0.10E+00    4.8     0.01673072       -75.5200580825 -4.77E-02
     6 Broy./Diag. 0.10E+00    4.9     0.02360516       -75.5654084809 -4.54E-02
     7 Broy./Diag. 0.10E+00    5.0     0.01289249       -75.5987441072 -3.33E-02
     8 Broy./Diag. 0.10E+00    5.2     0.00461396       -75.6140421523 -1.53E-02
     9 Broy./Diag. 0.10E+00    5.3     0.01027230       -75.6279836283 -1.39E-02
    10 Broy./Diag. 0.10E+00    5.3     0.00262021       -75.6364107129 -8.43E-03
    11 Broy./Diag. 0.10E+00    5.3     0.00970992       -75.6283617784  8.05E-03
    12 Broy./Diag. 0.10E+00    5.3     0.00247358       -75.6323132818 -3.95E-03
    13 Broy./Diag. 0.10E+00    5.3     0.00212290       -75.6357893991 -3.48E-03
    14 Broy./Diag. 0.10E+00    5.3     0.00314677       -75.6423693915 -6.58E-03
    15 Broy./Diag. 0.10E+00    5.3     0.00072808       -75.6452190201 -2.85E-03
    16 Broy./Diag. 0.10E+00    5.3     0.00096928       -75.6438408794  1.38E-03
    17 Broy./Diag. 0.10E+00    5.3     0.00091562       -75.6442991012 -4.58E-04
    18 Broy./Diag. 0.10E+00    5.4     0.00085083       -75.6439877073  3.11E-04
    19 Broy./Diag. 0.10E+00    5.3     0.00036697       -75.6427031526  1.28E-03
    20 Broy./Diag. 0.10E+00    5.3     0.00176629       -75.6425483793  1.55E-04
    21 Broy./Diag. 0.10E+00    5.3     0.00174650       -75.6428174913 -2.69E-04
    22 Broy./Diag. 0.10E+00    5.3     0.00116925       -75.6427617216  5.58E-05
    23 Broy./Diag. 0.10E+00    5.3     0.00151359       -75.6428714888 -1.10E-04
    24 Broy./Diag. 0.10E+00    5.3     0.00138231       -75.6425790231  2.92E-04
    25 Broy./Diag. 0.10E+00    5.4     0.00129722       -75.6427756633 -1.97E-04
    26 Broy./Diag. 0.10E+00    5.4     0.00111493       -75.6426564388  1.19E-04
    27 Broy./Diag. 0.10E+00    5.3     0.00112673       -75.6432908418 -6.34E-04
    28 Broy./Diag. 0.10E+00    5.3     0.00122346       -75.6431642122  1.27E-04
    29 Broy./Diag. 0.10E+00    5.3     0.00096874       -75.6430729991  9.12E-05
    30 Broy./Diag. 0.10E+00    5.3     0.00111363       -75.6432055672 -1.33E-04
    31 Broy./Diag. 0.10E+00    5.3     0.00087127       -75.6430577186  1.48E-04
    32 Broy./Diag. 0.10E+00    5.3     0.00092296       -75.6429863303  7.14E-05
    33 Broy./Diag. 0.10E+00    5.4     0.00113311       -75.6429348514  5.15E-05
    34 Broy./Diag. 0.10E+00    5.3     0.00108029       -75.6429068734  2.80E-05
    35 Broy./Diag. 0.10E+00    5.3     0.00103525       -75.6432183427 -3.11E-04
    36 Broy./Diag. 0.10E+00    5.3     0.00049757       -75.6433745255 -1.56E-04
    37 Broy./Diag. 0.10E+00    5.3     0.00066204       -75.6432048998  1.70E-04
    38 Broy./Diag. 0.10E+00    5.3     0.00077232       -75.6432445744 -3.97E-05
    39 Broy./Diag. 0.10E+00    5.3     0.00073310       -75.6436631553 -4.19E-04
    40 Broy./Diag. 0.10E+00    5.3     0.00137272       -75.6427909619  8.72E-04
    41 Broy./Diag. 0.10E+00    5.3     0.00043293       -75.6432456199 -4.55E-04
    42 Broy./Diag. 0.10E+00    5.3     0.00194918       -75.6428472887  3.98E-04
    43 Broy./Diag. 0.10E+00    5.4     0.00191019       -75.6430699868 -2.23E-04
    44 Broy./Diag. 0.10E+00    5.3     0.00110757       -75.6424913393  5.79E-04
    45 Broy./Diag. 0.10E+00    5.3     0.00246122       -75.6428435988 -3.52E-04
    46 Broy./Diag. 0.10E+00    5.3     0.00111089       -75.6429471893 -1.04E-04
    47 Broy./Diag. 0.10E+00    5.3     0.00085337       -75.6428142799  1.33E-04
    48 Broy./Diag. 0.10E+00    5.3     0.00723598       -75.6458936047 -3.08E-03
    49 Broy./Diag. 0.10E+00    5.3     0.00632575       -75.6454897000  4.04E-04
    50 Broy./Diag. 0.10E+00    5.3     0.00495711       -75.6441200380  1.37E-03
    51 Broy./Diag. 0.10E+00    5.3     0.00227158       -75.6429591333  1.16E-03
    52 Broy./Diag. 0.10E+00    5.4     0.00172941       -75.6425632048  3.96E-04
    53 Broy./Diag. 0.10E+00    5.3     0.00067454       -75.6421714927  3.92E-04
    54 Broy./Diag. 0.10E+00    5.3     0.00098652       -75.6419858376  1.86E-04
    55 Broy./Diag. 0.10E+00    5.3     0.00111437       -75.6419829069  2.93E-06
    56 Broy./Diag. 0.10E+00    5.3     0.00077235       -75.6418835906  9.93E-05
    57 Broy./Diag. 0.10E+00    5.3     0.00033338       -75.6421195391 -2.36E-04
    58 Broy./Diag. 0.10E+00    5.3     0.00042274       -75.6428142782 -6.95E-04
    59 Broy./Diag. 0.10E+00    5.4     0.00035596       -75.6427570671  5.72E-05
    60 Broy./Diag. 0.10E+00    5.3     0.00022505       -75.6428036446 -4.66E-05
    61 Broy./Diag. 0.10E+00    5.3     0.00022261       -75.6428097887 -6.14E-06
    62 Broy./Diag. 0.10E+00    5.3     0.00028614       -75.6428303439 -2.06E-05
    63 Broy./Diag. 0.10E+00    5.3     0.00035838       -75.6428637471 -3.34E-05
    64 Broy./Diag. 0.10E+00    5.3     0.00044842       -75.6428330127  3.07E-05
    65 Broy./Diag. 0.10E+00    5.3     0.00095711       -75.6427774218  5.56E-05
    66 Broy./Diag. 0.10E+00    5.3     0.00068887       -75.6426288442  1.49E-04
    67 Broy./Diag. 0.10E+00    5.3     0.00083560       -75.6429318505 -3.03E-04
    68 Broy./Diag. 0.10E+00    5.3     0.00102942       -75.6430489203 -1.17E-04
    69 Broy./Diag. 0.10E+00    5.3     0.00130063       -75.6428365446  2.12E-04
    70 Broy./Diag. 0.10E+00    5.3     0.00164489       -75.6426606425  1.76E-04
    71 Broy./Diag. 0.10E+00    5.3     0.00208447       -75.6426698923 -9.25E-06
    72 Broy./Diag. 0.10E+00    5.3     0.00258990       -75.6426695137  3.79E-07
    73 Broy./Diag. 0.10E+00    5.3     0.00324133       -75.6419970562  6.72E-04
    74 Broy./Diag. 0.10E+00    5.3     0.00405097       -75.6417660863  2.31E-04
    75 Broy./Diag. 0.10E+00    5.3     0.00507196       -75.6416776225  8.85E-05
    76 Broy./Diag. 0.10E+00    5.3     0.00629452       -75.6418252973 -1.48E-04
    77 Broy./Diag. 0.10E+00    5.3     0.00783934       -75.6414898806  3.35E-04
    78 Broy./Diag. 0.10E+00    5.3     0.00974063       -75.6407146517  7.75E-04
    79 Broy./Diag. 0.10E+00    5.3     0.01209263       -75.6391723696  1.54E-03
    80 Broy./Diag. 0.10E+00    5.3     0.01495983       -75.6371585806  2.01E-03
    81 Broy./Diag. 0.10E+00    5.3     0.01808902       -75.6340896427  3.07E-03
    82 Broy./Diag. 0.10E+00    5.3     0.02146790       -75.6289364810  5.15E-03
    83 Broy./Diag. 0.10E+00    5.3     0.02492919       -75.6211545076  7.78E-03
    84 Broy./Diag. 0.10E+00    5.4     0.03027121       -75.6103302343  1.08E-02
    85 Broy./Diag. 0.10E+00    5.4     0.04357044       -75.5967913100  1.35E-02
    86 Broy./Diag. 0.10E+00    5.3     0.05692716       -75.5776980218  1.91E-02
    87 Broy./Diag. 0.10E+00    5.3     0.06919060       -75.5512692255  2.64E-02
    88 Broy./Diag. 0.10E+00    5.3     0.07805926       -75.5174214942  3.38E-02
    89 Broy./Diag. 0.10E+00    5.4     0.08064501       -75.4795886479  3.78E-02
    90 Broy./Diag. 0.10E+00    5.3     0.07553196       -75.4411243541  3.85E-02
    91 Broy./Diag. 0.10E+00    5.3     0.06537754       -75.4047818548  3.63E-02
    92 Broy./Diag. 0.10E+00    5.3     0.05751101       -75.3715409252  3.32E-02
    93 Broy./Diag. 0.10E+00    5.4     0.04787783       -75.3388236313  3.27E-02
    94 Broy./Diag. 0.10E+00    5.3     0.03837397       -75.2981191349  4.07E-02
    95 Broy./Diag. 0.10E+00    5.3     0.02276599       -75.2577054242  4.04E-02
    96 Broy./Diag. 0.10E+00    5.3     0.02145707       -75.2316261497  2.61E-02
    97 Broy./Diag. 0.10E+00    5.4     0.01893225       -75.2024090030  2.92E-02
    98 Broy./Diag. 0.10E+00    5.3     0.01384520       -75.1648493734  3.76E-02
    99 Broy./Diag. 0.10E+00    5.3     0.04893019       -75.3133470072 -1.48E-01
   100 Broy./Diag. 0.10E+00    5.3     0.02874271       -75.4074328789 -9.41E-02
   101 Broy./Diag. 0.10E+00    5.3     0.09665752       -75.7734957907 -3.66E-01
   102 Broy./Diag. 0.10E+00    5.3     0.10435807       -75.8634481797 -9.00E-02
   103 Broy./Diag. 0.10E+00    5.3     0.08560057       -75.6426136488  2.21E-01
   104 Broy./Diag. 0.10E+00    5.3     0.07024589       -75.6546854954 -1.21E-02
   105 Broy./Diag. 0.10E+00    5.3     0.14278135       -75.5453005576  1.09E-01
   106 Broy./Diag. 0.10E+00    5.3     0.25777979       -75.3662229652  1.79E-01
   107 Broy./Diag. 0.10E+00    5.3     0.24425797       -75.2306136366  1.36E-01
   108 Broy./Diag. 0.10E+00    5.3     0.06474403       -75.1682128401  6.24E-02
   109 Broy./Diag. 0.10E+00    5.3     0.16900937       -75.5060151034 -3.38E-01
   110 Broy./Diag. 0.10E+00    5.3     0.23543283       -75.6982378158 -1.92E-01
   111 Broy./Diag. 0.10E+00    5.3     0.05613963       -75.6632235803  3.50E-02
   112 Broy./Diag. 0.10E+00    5.3     0.04352609       -75.5887079424  7.45E-02
   113 Broy./Diag. 0.10E+00    5.3     0.04962314       -75.6282970396 -3.96E-02
   114 Broy./Diag. 0.10E+00    5.3     0.03813588       -75.6421099730 -1.38E-02
   115 Broy./Diag. 0.10E+00    5.3     0.02478749       -75.6315501880  1.06E-02
   116 Broy./Diag. 0.10E+00    5.3     0.02651053       -75.6156216180  1.59E-02
   117 Broy./Diag. 0.10E+00    5.3     0.03241105       -75.6165720971 -9.50E-04
   118 Broy./Diag. 0.10E+00    5.4     0.03804512       -75.6191601932 -2.59E-03
   119 Broy./Diag. 0.10E+00    5.3     0.03386861       -75.6271881224 -8.03E-03
   120 Broy./Diag. 0.10E+00    5.4     0.02848940       -75.6353538172 -8.17E-03
   121 Broy./Diag. 0.10E+00    5.4     0.02489002       -75.6348408961  5.13E-04
   122 Broy./Diag. 0.10E+00    5.3     0.04398518       -75.6294118585  5.43E-03
   123 Broy./Diag. 0.10E+00    5.3     0.02498897       -75.5840118161  4.54E-02
   124 Broy./Diag. 0.10E+00    5.3     0.02717738       -75.6082326582 -2.42E-02
   125 Broy./Diag. 0.10E+00    5.3     0.04210361       -75.5811931958  2.70E-02
   126 Broy./Diag. 0.10E+00    5.3     0.04541503       -75.5509816555  3.02E-02
   127 Broy./Diag. 0.10E+00    5.4     0.06239302       -75.5246689113  2.63E-02
   128 Broy./Diag. 0.10E+00    5.4     0.06079450       -75.5023564748  2.23E-02
   129 Broy./Diag. 0.10E+00    5.4     0.08374082       -75.4897690000  1.26E-02
   130 Broy./Diag. 0.10E+00    5.4     0.05364131       -75.4846786456  5.09E-03
   131 Broy./Diag. 0.10E+00    5.3     0.06801634       -75.4374657907  4.72E-02
   132 Broy./Diag. 0.10E+00    5.3     0.06672469       -75.3951667518  4.23E-02
   133 Broy./Diag. 0.10E+00    5.3     0.07941240       -75.3365034139  5.87E-02
   134 Broy./Diag. 0.10E+00    5.4     0.07559963       -75.2627870992  7.37E-02
   135 Broy./Diag. 0.10E+00    5.4     0.07598980       -75.2415358219  2.13E-02
   136 Broy./Diag. 0.10E+00    5.3     0.05724551       -75.2104713024  3.11E-02
   137 Broy./Diag. 0.10E+00    5.3     0.06868092       -75.2000656773  1.04E-02
   138 Broy./Diag. 0.10E+00    5.3     0.09583863       -75.1499918158  5.01E-02
   139 Broy./Diag. 0.10E+00    5.3     0.08076568       -75.2820435411 -1.32E-01
   140 Broy./Diag. 0.10E+00    5.3     0.10957888       -75.4950690391 -2.13E-01
   141 Broy./Diag. 0.10E+00    5.3     0.07576992       -75.5012572773 -6.19E-03
   142 Broy./Diag. 0.10E+00    5.3     0.07301218       -75.4784383966  2.28E-02
   143 Broy./Diag. 0.10E+00    5.3     0.03759689       -75.4285993171  4.98E-02
   144 Broy./Diag. 0.10E+00    5.4     0.03501037       -75.3302407383  9.84E-02
   145 Broy./Diag. 0.10E+00    5.3     0.06774573       -75.4880484214 -1.58E-01
   146 Broy./Diag. 0.10E+00    5.3     0.07939402       -75.5438019823 -5.58E-02
   147 Broy./Diag. 0.10E+00    5.3     0.11247818       -75.5564657053 -1.27E-02
   148 Broy./Diag. 0.10E+00    5.3     0.15420356       -75.5685682611 -1.21E-02
   149 Broy./Diag. 0.10E+00    5.3     0.11497537       -75.6333348095 -6.48E-02
   150 Broy./Diag. 0.10E+00    5.3     0.07521917       -75.7079213452 -7.46E-02
   151 Broy./Diag. 0.10E+00    5.3     0.05473540       -75.7322693635 -2.43E-02
   152 Broy./Diag. 0.10E+00    5.3     0.03569231       -75.7125521574  1.97E-02
   153 Broy./Diag. 0.10E+00    5.4     0.05058940       -75.6973226056  1.52E-02
   154 Broy./Diag. 0.10E+00    5.3     0.05281037       -75.7153321286 -1.80E-02
   155 Broy./Diag. 0.10E+00    5.3     0.05426541       -75.7131950195  2.14E-03
   156 Broy./Diag. 0.10E+00    5.3     0.06330554       -75.6860961053  2.71E-02
   157 Broy./Diag. 0.10E+00    5.3     0.04081006       -75.6284805017  5.76E-02
   158 Broy./Diag. 0.10E+00    5.3     0.06680054       -75.6245502749  3.93E-03
   159 Broy./Diag. 0.10E+00    5.4     0.03647465       -75.6466134174 -2.21E-02
   160 Broy./Diag. 0.10E+00    5.3     0.04764418       -75.6282533097  1.84E-02
   161 Broy./Diag. 0.10E+00    5.3     0.01380973       -75.6009609977  2.73E-02
   162 Broy./Diag. 0.10E+00    5.3     0.03934237       -75.5476363267  5.33E-02
   163 Broy./Diag. 0.10E+00    5.3     0.02200152       -75.5301471669  1.75E-02
   164 Broy./Diag. 0.10E+00    5.3     0.03858112       -75.5245324563  5.61E-03
   165 Broy./Diag. 0.10E+00    5.3     0.03962230       -75.5432975113 -1.88E-02
   166 Broy./Diag. 0.10E+00    5.3     0.02687783       -75.5630606443 -1.98E-02
   167 Broy./Diag. 0.10E+00    5.3     0.06452914       -75.6150291501 -5.20E-02
   168 Broy./Diag. 0.10E+00    5.3     0.11408185       -75.6474134352 -3.24E-02
   169 Broy./Diag. 0.10E+00    5.4     0.08568667       -75.6487895718 -1.38E-03
   170 Broy./Diag. 0.10E+00    5.3     0.02967157       -75.6423053036  6.48E-03
   171 Broy./Diag. 0.10E+00    5.3     0.04314602       -75.6501290420 -7.82E-03
   172 Broy./Diag. 0.10E+00    5.3     0.05204592       -75.6641845026 -1.41E-02
   173 Broy./Diag. 0.10E+00    5.3     0.05768283       -75.6715833505 -7.40E-03
   174 Broy./Diag. 0.10E+00    5.3     0.05101427       -75.6752351132 -3.65E-03
   175 Broy./Diag. 0.10E+00    5.4     0.05363974       -75.6609802109  1.43E-02
   176 Broy./Diag. 0.10E+00    5.3     0.05388930       -75.6539536742  7.03E-03
   177 Broy./Diag. 0.10E+00    5.3     0.04939638       -75.6406387949  1.33E-02
   178 Broy./Diag. 0.10E+00    5.4     0.07294636       -75.6142719984  2.64E-02
   179 Broy./Diag. 0.10E+00    5.3     0.06712226       -75.5892063134  2.51E-02
   180 Broy./Diag. 0.10E+00    5.3     0.06138648       -75.5725565439  1.66E-02
   181 Broy./Diag. 0.10E+00    5.3     0.04058601       -75.5690066088  3.55E-03
   182 Broy./Diag. 0.10E+00    5.3     0.02851041       -75.5776442387 -8.64E-03
   183 Broy./Diag. 0.10E+00    5.3     0.05793498       -75.6966950705 -1.19E-01
   184 Broy./Diag. 0.10E+00    5.4     0.10566297       -75.6314305121  6.53E-02
   185 Broy./Diag. 0.10E+00    5.4     0.12791738       -75.5300947005  1.01E-01
   186 Broy./Diag. 0.10E+00    5.3     0.07976970       -75.4956915005  3.44E-02
   187 Broy./Diag. 0.10E+00    5.3     0.05435403       -75.4954089519  2.83E-04
   188 Broy./Diag. 0.10E+00    5.3     0.07204145       -75.5358522655 -4.04E-02
   189 Broy./Diag. 0.10E+00    5.3     0.11018312       -75.4326395442  1.03E-01
   190 Broy./Diag. 0.10E+00    5.3     0.11070716       -75.4765015589 -4.39E-02
   191 Broy./Diag. 0.10E+00    5.3     0.09481646       -75.5300925594 -5.36E-02
   192 Broy./Diag. 0.10E+00    5.3     0.07971967       -75.5184266901  1.17E-02
   193 Broy./Diag. 0.10E+00    5.3     0.08497265       -75.5161423373  2.28E-03
   194 Broy./Diag. 0.10E+00    5.3     0.05532928       -75.5415014851 -2.54E-02
   195 Broy./Diag. 0.10E+00    5.3     0.14378444       -75.5664705141 -2.50E-02
   196 Broy./Diag. 0.10E+00    5.3     0.07222191       -75.5531137890  1.34E-02
   197 Broy./Diag. 0.10E+00    5.4     0.03809546       -75.5551920278 -2.08E-03
   198 Broy./Diag. 0.10E+00    5.3     0.07008647       -75.5573752730 -2.18E-03
   199 Broy./Diag. 0.10E+00    5.3     0.14483645       -75.6720025589 -1.15E-01
   200 Broy./Diag. 0.10E+00    5.3     0.09557951       -75.6365614581  3.54E-02
   201 Broy./Diag. 0.10E+00    5.4     0.05714406       -75.6347671242  1.79E-03
   202 Broy./Diag. 0.10E+00    5.3     0.03953590       -75.6639923383 -2.92E-02
   203 Broy./Diag. 0.10E+00    5.4     0.03340710       -75.6903474257 -2.64E-02
   204 Broy./Diag. 0.10E+00    5.3     0.04274652       -75.6998778498 -9.53E-03
   205 Broy./Diag. 0.10E+00    5.3     0.04973867       -75.7110413075 -1.12E-02
   206 Broy./Diag. 0.10E+00    5.3     0.05279170       -75.7135005690 -2.46E-03
   207 Broy./Diag. 0.10E+00    5.3     0.05408917       -75.7048998929  8.60E-03
   208 Broy./Diag. 0.10E+00    5.3     0.04684668       -75.6856975256  1.92E-02
   209 Broy./Diag. 0.10E+00    5.4     0.05230741       -75.6665377922  1.92E-02
   210 Broy./Diag. 0.10E+00    5.4     0.05469031       -75.6308132397  3.57E-02
   211 Broy./Diag. 0.10E+00    5.3     0.05388952       -75.6057266820  2.51E-02
   212 Broy./Diag. 0.10E+00    5.3     0.04961393       -75.5815677195  2.42E-02
   213 Broy./Diag. 0.10E+00    5.3     0.05669387       -75.5442908891  3.73E-02
   214 Broy./Diag. 0.10E+00    5.3     0.05926676       -75.5080600450  3.62E-02
   215 Broy./Diag. 0.10E+00    5.3     0.06612593       -75.4721333084  3.59E-02
   216 Broy./Diag. 0.10E+00    5.3     0.07515046       -75.4306129267  4.15E-02
   217 Broy./Diag. 0.10E+00    5.4     0.07769445       -75.3681611731  6.25E-02
   218 Broy./Diag. 0.10E+00    5.3     0.05749352       -75.3763670914 -8.21E-03
   219 Broy./Diag. 0.10E+00    5.4     0.03980074       -75.4536993196 -7.73E-02
   220 Broy./Diag. 0.10E+00    5.3     0.03283750       -75.4967104793 -4.30E-02
   221 Broy./Diag. 0.10E+00    5.3     0.05859115       -75.5590826426 -6.24E-02
   222 Broy./Diag. 0.10E+00    5.3     0.13530563       -75.5877614036 -2.87E-02
   223 Broy./Diag. 0.10E+00    5.3     0.27380900       -75.6693787085 -8.16E-02
   224 Broy./Diag. 0.10E+00    5.3     0.17430255       -75.7566477930 -8.73E-02
   225 Broy./Diag. 0.10E+00    5.3     0.06409444       -75.7475305107  9.12E-03
   226 Broy./Diag. 0.10E+00    5.3     0.07900861       -75.6950031608  5.25E-02
   227 Broy./Diag. 0.10E+00    5.3     0.02105469       -75.7091415562 -1.41E-02
   228 Broy./Diag. 0.10E+00    5.3     0.02448489       -75.7374135437 -2.83E-02
   229 Broy./Diag. 0.10E+00    5.3     0.01457229       -75.7581675271 -2.08E-02
   230 Broy./Diag. 0.10E+00    5.3     0.01320854       -75.7633238916 -5.16E-03
   231 Broy./Diag. 0.10E+00    5.3     0.04776382       -75.7576065397  5.72E-03
   232 Broy./Diag. 0.10E+00    5.3     0.04468977       -75.7442081060  1.34E-02
   233 Broy./Diag. 0.10E+00    5.3     0.03435842       -75.7158299307  2.84E-02
   234 Broy./Diag. 0.10E+00    5.3     0.01224044       -75.6971762288  1.87E-02
   235 Broy./Diag. 0.10E+00    5.4     0.01109639       -75.6964601759  7.16E-04
   236 Broy./Diag. 0.10E+00    5.3     0.01583892       -75.6957264050  7.34E-04
   237 Broy./Diag. 0.10E+00    5.3     0.01565351       -75.6877275391  8.00E-03
   238 Broy./Diag. 0.10E+00    5.4     0.01659658       -75.6856038513  2.12E-03
   239 Broy./Diag. 0.10E+00    5.3     0.01579083       -75.6879916272 -2.39E-03
   240 Broy./Diag. 0.10E+00    5.3     0.02468377       -75.6763585133  1.16E-02
   241 Broy./Diag. 0.10E+00    5.4     0.03126909       -75.6700267734  6.33E-03
   242 Broy./Diag. 0.10E+00    5.3     0.03237815       -75.6632032407  6.82E-03
   243 Broy./Diag. 0.10E+00    5.3     0.03980880       -75.6532730025  9.93E-03
   244 Broy./Diag. 0.10E+00    5.4     0.04836566       -75.6394940021  1.38E-02
   245 Broy./Diag. 0.10E+00    5.3     0.06038231       -75.6182221877  2.13E-02
   246 Broy./Diag. 0.10E+00    5.4     0.07643326       -75.5894448961  2.88E-02
   247 Broy./Diag. 0.10E+00    5.3     0.08661878       -75.5531925848  3.63E-02
   248 Broy./Diag. 0.10E+00    5.4     0.08505629       -75.5106324274  4.26E-02
   249 Broy./Diag. 0.10E+00    5.4     0.07681891       -75.4635602468  4.71E-02
   250 Broy./Diag. 0.10E+00    5.3     0.06058273       -75.4201020286  4.35E-02
   251 Broy./Diag. 0.10E+00    5.4     0.04222702       -75.3920139225  2.81E-02
   252 Broy./Diag. 0.10E+00    5.3     0.01888058       -75.3597852209  3.22E-02
   253 Broy./Diag. 0.10E+00    5.3     0.02986915       -75.3865242040 -2.67E-02
   254 Broy./Diag. 0.10E+00    5.4     0.02165733       -75.4340078062 -4.75E-02
   255 Broy./Diag. 0.10E+00    5.3     0.02331638       -75.4934873210 -5.95E-02
   256 Broy./Diag. 0.10E+00    5.3     0.02123961       -75.5403415632 -4.69E-02
   257 Broy./Diag. 0.10E+00    5.3     0.03655456       -75.6020101820 -6.17E-02
   258 Broy./Diag. 0.10E+00    5.3     0.10704870       -75.6672247162 -6.52E-02
   259 Broy./Diag. 0.10E+00    5.4     0.20580931       -75.7118807064 -4.47E-02
   260 Broy./Diag. 0.10E+00    5.4     0.14046214       -75.7505279380 -3.86E-02
   261 Broy./Diag. 0.10E+00    5.3     0.08650218       -75.7655092528 -1.50E-02
   262 Broy./Diag. 0.10E+00    5.3     0.04491853       -75.7508298954  1.47E-02
   263 Broy./Diag. 0.10E+00    5.3     0.02263965       -75.6937614312  5.71E-02
   264 Broy./Diag. 0.10E+00    5.3     0.01214557       -75.6937833021 -2.19E-05
   265 Broy./Diag. 0.10E+00    5.4     0.00713427       -75.6994022895 -5.62E-03
   266 Broy./Diag. 0.10E+00    5.3     0.01628407       -75.7047944950 -5.39E-03
   267 Broy./Diag. 0.10E+00    5.3     0.01342387       -75.6825631039  2.22E-02
   268 Broy./Diag. 0.10E+00    5.4     0.04511047       -75.6463378818  3.62E-02
   269 Broy./Diag. 0.10E+00    5.4     0.06861343       -75.6266698045  1.97E-02
   270 Broy./Diag. 0.10E+00    5.3     0.02992654       -75.6770047827 -5.03E-02
   271 Broy./Diag. 0.10E+00    5.4     0.04902987       -75.6514922879  2.55E-02
   272 Broy./Diag. 0.10E+00    5.3     0.07446400       -75.6009701264  5.05E-02
   273 Broy./Diag. 0.10E+00    5.4     0.09655469       -75.5595928933  4.14E-02
   274 Broy./Diag. 0.10E+00    5.3     0.01891885       -75.5957131128 -3.61E-02
   275 Broy./Diag. 0.10E+00    5.3     0.07159302       -75.6404212158 -4.47E-02
   276 Broy./Diag. 0.10E+00    5.3     0.08827154       -75.6758830772 -3.55E-02
   277 Broy./Diag. 0.10E+00    5.3     0.08245289       -75.7163601730 -4.05E-02
   278 Broy./Diag. 0.10E+00    5.3     0.05109434       -75.7261711829 -9.81E-03
   279 Broy./Diag. 0.10E+00    5.5     0.02139376       -75.6807901772  4.54E-02
   280 Broy./Diag. 0.10E+00    5.3     0.01701507       -75.6761278478  4.66E-03
   281 Broy./Diag. 0.10E+00    5.4     0.03102961       -75.6949842498 -1.89E-02
   282 Broy./Diag. 0.10E+00    5.3     0.02322896       -75.6882201582  6.76E-03
   283 Broy./Diag. 0.10E+00    5.3     0.01477018       -75.6821973193  6.02E-03
   284 Broy./Diag. 0.10E+00    5.3     0.01955012       -75.6838250421 -1.63E-03
   285 Broy./Diag. 0.10E+00    5.3     0.02753855       -75.6869798482 -3.15E-03
   286 Broy./Diag. 0.10E+00    5.4     0.02872191       -75.6804161195  6.56E-03
   287 Broy./Diag. 0.10E+00    5.3     0.01782912       -75.6556877123  2.47E-02
   288 Broy./Diag. 0.10E+00    5.4     0.01606024       -75.6566752502 -9.88E-04
   289 Broy./Diag. 0.10E+00    5.3     0.01032677       -75.6595742023 -2.90E-03
   290 Broy./Diag. 0.10E+00    5.3     0.00803016       -75.6611174233 -1.54E-03
   291 Broy./Diag. 0.10E+00    5.3     0.00819968       -75.6525704157  8.55E-03
   292 Broy./Diag. 0.10E+00    5.3     0.01017415       -75.6502754489  2.29E-03
   293 Broy./Diag. 0.10E+00    5.3     0.00977715       -75.6480645559  2.21E-03
   294 Broy./Diag. 0.10E+00    5.4     0.00927620       -75.6461666680  1.90E-03
   295 Broy./Diag. 0.10E+00    5.3     0.01123762       -75.6353761883  1.08E-02
   296 Broy./Diag. 0.10E+00    5.3     0.01126747       -75.6356039005 -2.28E-04
   297 Broy./Diag. 0.10E+00    5.3     0.01358950       -75.6309460081  4.66E-03
   298 Broy./Diag. 0.10E+00    5.3     0.02179156       -75.6240984593  6.85E-03
   299 Broy./Diag. 0.10E+00    5.3     0.02456552       -75.6160284628  8.07E-03
   300 Broy./Diag. 0.10E+00    5.3     0.02787524       -75.5923075740  2.37E-02
   301 Broy./Diag. 0.10E+00    5.3     0.04650255       -75.5842693079  8.04E-03
   302 Broy./Diag. 0.10E+00    5.3     0.05636667       -75.5662264532  1.80E-02
   303 Broy./Diag. 0.10E+00    5.3     0.08065470       -75.5412479187  2.50E-02
   304 Broy./Diag. 0.10E+00    5.3     0.11158571       -75.5020290941  3.92E-02
   305 Broy./Diag. 0.10E+00    5.3     0.11257662       -75.4610565166  4.10E-02
   306 Broy./Diag. 0.10E+00    5.3     0.09050628       -75.4176125683  4.34E-02
   307 Broy./Diag. 0.10E+00    5.3     0.05526530       -75.3829248366  3.47E-02
   308 Broy./Diag. 0.10E+00    5.3     0.04773144       -75.3702198237  1.27E-02
   309 Broy./Diag. 0.10E+00    5.3     0.06213462       -75.3176061340  5.26E-02
   310 Broy./Diag. 0.10E+00    5.4     0.05658729       -75.2698422395  4.78E-02
   311 Broy./Diag. 0.10E+00    5.3     0.05942563       -75.2669304318  2.91E-03
   312 Broy./Diag. 0.10E+00    5.3     0.07353540       -75.2799534586 -1.30E-02
   313 Broy./Diag. 0.10E+00    5.3     0.07432114       -75.2942027067 -1.42E-02
   314 Broy./Diag. 0.10E+00    5.3     0.07617516       -75.3186901871 -2.45E-02
   315 Broy./Diag. 0.10E+00    5.3     0.06722752       -75.3564263740 -3.77E-02
   316 Broy./Diag. 0.10E+00    5.3     0.13370595       -75.4390753055 -8.26E-02
   317 Broy./Diag. 0.10E+00    5.3     0.13309540       -75.5301252923 -9.10E-02
   318 Broy./Diag. 0.10E+00    5.3     0.07294161       -75.5539683045 -2.38E-02
   319 Broy./Diag. 0.10E+00    5.4     0.05625347       -75.5782965024 -2.43E-02
   320 Broy./Diag. 0.10E+00    5.3     0.07691089       -75.6502359374 -7.19E-02
   321 Broy./Diag. 0.10E+00    5.4     0.05858975       -75.7036829945 -5.34E-02
   322 Broy./Diag. 0.10E+00    5.3     0.03606003       -75.7086662721 -4.98E-03
   323 Broy./Diag. 0.10E+00    5.3     0.02821323       -75.6995662037  9.10E-03
   324 Broy./Diag. 0.10E+00    5.3     0.04450489       -75.6921832146  7.38E-03
   325 Broy./Diag. 0.10E+00    5.4     0.03160714       -75.7066048315 -1.44E-02
   326 Broy./Diag. 0.10E+00    5.3     0.01887179       -75.7018166063  4.79E-03
   327 Broy./Diag. 0.10E+00    5.3     0.01828913       -75.6980217264  3.79E-03
   328 Broy./Diag. 0.10E+00    5.3     0.01887496       -75.6978666539  1.55E-04
   329 Broy./Diag. 0.10E+00    5.4     0.01820583       -75.6936420714  4.22E-03
   330 Broy./Diag. 0.10E+00    5.4     0.00800241       -75.6889665336  4.68E-03
   331 Broy./Diag. 0.10E+00    5.3     0.01157758       -75.6841530733  4.81E-03
   332 Broy./Diag. 0.10E+00    5.3     0.02282448       -75.6632560413  2.09E-02
   333 Broy./Diag. 0.10E+00    5.3     0.00860596       -75.6638975005 -6.41E-04
   334 Broy./Diag. 0.10E+00    5.3     0.03040328       -75.6686624812 -4.76E-03
   335 Broy./Diag. 0.10E+00    5.3     0.03467930       -75.6706681058 -2.01E-03
   336 Broy./Diag. 0.10E+00    5.3     0.04967461       -75.6700153690  6.53E-04
   337 Broy./Diag. 0.10E+00    5.3     0.05230714       -75.6681632704  1.85E-03
   338 Broy./Diag. 0.10E+00    5.4     0.04047046       -75.6638614301  4.30E-03
   339 Broy./Diag. 0.10E+00    5.3     0.02656223       -75.6624626675  1.40E-03
   340 Broy./Diag. 0.10E+00    5.3     0.01283664       -75.6634090143 -9.46E-04
   341 Broy./Diag. 0.10E+00    5.3     0.01165480       -75.6557175456  7.69E-03
   342 Broy./Diag. 0.10E+00    5.3     0.01518919       -75.6420843896  1.36E-02
   343 Broy./Diag. 0.10E+00    5.3     0.00555190       -75.6402295976  1.85E-03
   344 Broy./Diag. 0.10E+00    5.4     0.00539966       -75.6342239832  6.01E-03
   345 Broy./Diag. 0.10E+00    5.3     0.01267549       -75.6352050543 -9.81E-04
   346 Broy./Diag. 0.10E+00    5.3     0.02000948       -75.6407994458 -5.59E-03
   347 Broy./Diag. 0.10E+00    5.3     0.06522689       -75.6602386067 -1.94E-02
   348 Broy./Diag. 0.10E+00    5.3     0.06800280       -75.6938881874 -3.36E-02
   349 Broy./Diag. 0.10E+00    5.3     0.03977879       -75.7020199544 -8.13E-03
   350 Broy./Diag. 0.10E+00    5.3     0.01671600       -75.6854575290  1.66E-02
   351 Broy./Diag. 0.10E+00    5.3     0.03737022       -75.6816671142  3.79E-03
[...]
   418 Broy./Diag. 0.10E+00    5.3     0.06398553       -75.6726274185  1.92E-02
   419 Broy./Diag. 0.10E+00    5.4     0.08636995       -75.6288761392  4.38E-02
   420 Broy./Diag. 0.10E+00    5.3     0.08596193       -75.5917050928  3.72E-02
   421 Broy./Diag. 0.10E+00    5.4     0.06749729       -75.5581634130  3.35E-02
   422 Broy./Diag. 0.10E+00    5.3     0.03645481       -75.5433012748  1.49E-02
   423 Broy./Diag. 0.10E+00    5.4     0.01529875       -75.5430455514  2.56E-04
   424 Broy./Diag. 0.10E+00    5.3     0.13673201       -75.6087008009 -6.57E-02
   425 Broy./Diag. 0.10E+00    5.3     0.15661056       -75.6842836227 -7.56E-02
   426 Broy./Diag. 0.10E+00    5.3     0.10847869       -75.7337244985 -4.94E-02
   427 Broy./Diag. 0.10E+00    5.3     0.05725447       -75.7275879911  6.14E-03
   428 Broy./Diag. 0.10E+00    5.3     0.02629534       -75.6935900223  3.40E-02
   429 Broy./Diag. 0.10E+00    5.3     0.01863305       -75.6881041116  5.49E-03
   430 Broy./Diag. 0.10E+00    5.3     0.02462913       -75.6739189031  1.42E-02
   431 Broy./Diag. 0.10E+00    5.3     0.03565510       -75.6597124560  1.42E-02
   432 Broy./Diag. 0.10E+00    5.3     0.03773730       -75.6606846643 -9.72E-04
   433 Broy./Diag. 0.10E+00    5.3     0.04956980       -75.6512879960  9.40E-03
   434 Broy./Diag. 0.10E+00    5.3     0.05921056       -75.6309829874  2.03E-02
   435 Broy./Diag. 0.10E+00    5.4     0.06236975       -75.6196065182  1.14E-02
   436 Broy./Diag. 0.10E+00    5.3     0.08137014       -75.5680941772  5.15E-02
   437 Broy./Diag. 0.10E+00    5.4     0.04407872       -75.5607718848  7.32E-03
   438 Broy./Diag. 0.10E+00    5.4     0.02830211       -75.5534552742  7.32E-03
   439 Broy./Diag. 0.10E+00    5.3     0.05127020       -75.5236770145  2.98E-02
   440 Broy./Diag. 0.10E+00    5.3     0.06255366       -75.4878747751  3.58E-02
   441 Broy./Diag. 0.10E+00    5.3     0.04892517       -75.4682189875  1.97E-02
   442 Broy./Diag. 0.10E+00    5.3     0.03227334       -75.4777469642 -9.53E-03
   443 Broy./Diag. 0.10E+00    5.3     0.01554252       -75.5086360431 -3.09E-02
   444 Broy./Diag. 0.10E+00    5.3     0.06694491       -75.5449154544 -3.63E-02
   445 Broy./Diag. 0.10E+00    5.3     0.13763667       -75.5831309808 -3.82E-02
   446 Broy./Diag. 0.10E+00    5.4     0.14576606       -75.6281398921 -4.50E-02
   447 Broy./Diag. 0.10E+00    5.3     0.08402327       -75.6628734241 -3.47E-02
   448 Broy./Diag. 0.10E+00    5.3     0.04469562       -75.6750961355 -1.22E-02
   449 Broy./Diag. 0.10E+00    5.3     0.04483067       -75.6911428322 -1.60E-02
   450 Broy./Diag. 0.10E+00    5.3     0.05219934       -75.7012397033 -1.01E-02
   451 Broy./Diag. 0.10E+00    5.3     0.05553371       -75.7072465120 -6.01E-03
   452 Broy./Diag. 0.10E+00    5.3     0.05101393       -75.6993400368  7.91E-03
   453 Broy./Diag. 0.10E+00    5.3     0.04069062       -75.6824507965  1.69E-02
   454 Broy./Diag. 0.10E+00    5.3     0.03690907       -75.6621110902  2.03E-02
   455 Broy./Diag. 0.10E+00    5.3     0.03793472       -75.6427812402  1.93E-02
   456 Broy./Diag. 0.10E+00    5.4     0.03855463       -75.6226714068  2.01E-02
   457 Broy./Diag. 0.10E+00    5.4     0.03173320       -75.6099518354  1.27E-02
   458 Broy./Diag. 0.10E+00    5.3     0.04054825       -75.5762650031  3.37E-02
   459 Broy./Diag. 0.10E+00    5.3     0.05823833       -75.5422266757  3.40E-02
   460 Broy./Diag. 0.10E+00    5.3     0.07214019       -75.5086762092  3.36E-02
   461 Broy./Diag. 0.10E+00    5.3     0.09070895       -75.4610479844  4.76E-02
   462 Broy./Diag. 0.10E+00    5.4     0.08692009       -75.4162985473  4.47E-02
   463 Broy./Diag. 0.10E+00    5.3     0.06743649       -75.3835863080  3.27E-02
   464 Broy./Diag. 0.10E+00    5.3     0.04973725       -75.3685135381  1.51E-02
   465 Broy./Diag. 0.10E+00    5.3     0.04683874       -75.3529575160  1.56E-02
   466 Broy./Diag. 0.10E+00    5.3     0.03217603       -75.4804411812 -1.27E-01
   467 Broy./Diag. 0.10E+00    5.3     0.01680288       -75.4436699644  3.68E-02
   468 Broy./Diag. 0.10E+00    5.3     0.02157018       -75.4391109172  4.56E-03
   469 Broy./Diag. 0.10E+00    5.3     0.08722830       -75.4089109615  3.02E-02
   470 Broy./Diag. 0.10E+00    5.3     0.10711160       -75.4050077905  3.90E-03
   471 Broy./Diag. 0.10E+00    5.3     0.09273265       -75.4520851193 -4.71E-02
   472 Broy./Diag. 0.10E+00    5.5     0.17059504       -75.5186076282 -6.65E-02
   473 Broy./Diag. 0.10E+00    5.3     0.19567186       -75.5690053872 -5.04E-02
   474 Broy./Diag. 0.10E+00    5.3     0.11450885       -75.5887629805 -1.98E-02
   475 Broy./Diag. 0.10E+00    5.3     0.08785174       -75.6453226744 -5.66E-02
   476 Broy./Diag. 0.10E+00    5.3     0.06310966       -75.7108987193 -6.56E-02
   477 Broy./Diag. 0.10E+00    5.3     0.04216989       -75.7216025771 -1.07E-02
   478 Broy./Diag. 0.10E+00    5.3     0.01735011       -75.6988818009  2.27E-02
   479 Broy./Diag. 0.10E+00    5.3     0.00693938       -75.6885416112  1.03E-02
   480 Broy./Diag. 0.10E+00    5.3     0.00479006       -75.6921265376 -3.58E-03
   481 Broy./Diag. 0.10E+00    5.3     0.00519663       -75.6843072856  7.82E-03
   482 Broy./Diag. 0.10E+00    5.3     0.02124880       -75.6386448229  4.57E-02
   483 Broy./Diag. 0.10E+00    5.3     0.01430538       -75.6768149732 -3.82E-02
   484 Broy./Diag. 0.10E+00    5.3     0.04979342       -75.6587672139  1.80E-02
   485 Broy./Diag. 0.10E+00    5.3     0.05443743       -75.6553405717  3.43E-03
   486 Broy./Diag. 0.10E+00    5.3     0.07501644       -75.6594239306 -4.08E-03
   487 Broy./Diag. 0.10E+00    5.4     0.06148036       -75.6456264796  1.38E-02
   488 Broy./Diag. 0.10E+00    5.3     0.07985406       -75.6065329466  3.91E-02
   489 Broy./Diag. 0.10E+00    5.4     0.07193561       -75.5743652896  3.22E-02
   490 Broy./Diag. 0.10E+00    5.3     0.05427104       -75.5402148476  3.42E-02
   491 Broy./Diag. 0.10E+00    5.3     0.04322864       -75.5089816645  3.12E-02
   492 Broy./Diag. 0.10E+00    5.4     0.02905021       -75.4955074561  1.35E-02
   493 Broy./Diag. 0.10E+00    5.3     0.02518420       -75.4788165714  1.67E-02
   494 Broy./Diag. 0.10E+00    5.3     0.02684402       -75.4591201859  1.97E-02
   495 Broy./Diag. 0.10E+00    5.3     0.03365510       -75.4403687321  1.88E-02
   496 Broy./Diag. 0.10E+00    5.3     0.03382566       -75.4336430265  6.73E-03
   497 Broy./Diag. 0.10E+00    5.4     0.07747201       -75.3791923682  5.45E-02
   498 Broy./Diag. 0.10E+00    5.3     0.06091111       -75.4073063195 -2.81E-02
   499 Broy./Diag. 0.10E+00    5.3     0.02743547       -75.4667387833 -5.94E-02
   500 Broy./Diag. 0.10E+00    5.3     0.10979069       -75.5278935224 -6.12E-02

  Leaving inner SCF loop after reaching   500 steps.


  Electronic density on regular grids:         -8.1653455289        3.8346544711
  Core density on regular grids:               12.0000000000        0.0000000000
  Hard and soft densities (Lebedev):          -29.8301738850      -25.9966985730
  Total Rho_soft + Rho1_hard - Rho1_soft      -11.9988208408
  Total charge density (r-space):               0.0011791592
  Total Rho_soft + Rho0_soft (g-space):         0.0011790633

  Overlap energy of the core charge distribution:               0.00003125550742
  Self energy of the core charge distribution:                -58.22549323810243
  Core Hamiltonian energy:                                    -14.88009715250271
  Hartree energy:                                              16.84144366635904
  Exchange-correlation energy:                                 -2.57366508822084
  Hartree-Fock Exchange energy:                                -2.57106939038883

  GAPW| Exc from hard and soft atomic rho1:                    -5.45510049865614
  GAPW| local Eh = 1 center integrals:                         -8.66394307637769

  Total energy:                                               -75.52789352238219

 *******************************************************************************
 *   ___                                                                       *
 *  /   \                                                                      *
 * [ABORT]                                                                     *
 *  \___/     SCF run NOT converged. To continue the calculation regardless,   *
 *    |             please set the keyword IGNORE_CONVERGENCE_FAILURE.         *
 *  O/|                                                                        *
 * /| |                                                                        *
 * / \                                                            qs_scf.F:611 *
 *******************************************************************************


 ===== Routine Calling Stack ===== 

            3 scf_env_do_scf
            2 qs_energies
            1 CP2K

 *******************************************************************************
 *   ___                                                                       *
 *  /   \                                                                      *
 * [ABORT]                                                                     *
 *  \___/     SCF run NOT converged. To continue the calculation regardless,   *
 *    |             please set the keyword IGNORE_CONVERGENCE_FAILURE.         *
 *  O/|                                                                        *
 * /| |                                                                        *
 * / \                                                            qs_scf.F:611 *
 *******************************************************************************


 ===== Routine Calling Stack ===== 

            3 scf_env_do_scf
            2 qs_energies
            1 CP2K

 *******************************************************************************
 *   ___                                                                       *
 *  /   \                                                                      *
 * [ABORT]                                                                     *
 *  \___/     SCF run NOT converged. To continue the calculation regardless,   *
 *    |             please set the keyword IGNORE_CONVERGENCE_FAILURE.         *
 *  O/|                                                                        *
 * /| |                                                                        *
 * / \                                                            qs_scf.F:611 *
 *******************************************************************************


 ===== Routine Calling Stack ===== 

            3 scf_env_do_scf
            2 qs_energies
            1 CP2K

 *******************************************************************************
 *   ___                                                                       *
 *  /   \                                                                      *
 * [ABORT]                                                                     *
 *  \___/     SCF run NOT converged. To continue the calculation regardless,   *
 *    |             please set the keyword IGNORE_CONVERGENCE_FAILURE.         *
 *  O/|                                                                        *
 * /| |                                                                        *
 * / \                                                            qs_scf.F:611 *
 *******************************************************************************


 ===== Routine Calling Stack ===== 

            3 scf_env_do_scf
            2 qs_energies
            1 CP2K

 *******************************************************************************
 *   ___                                                                       *
 *  /   \                                                                      *
 * [ABORT]                                                                     *
 *  \___/     SCF run NOT converged. To continue the calculation regardless,   *
 *    |             please set the keyword IGNORE_CONVERGENCE_FAILURE.         *
 *  O/|                                                                        *
 * /| |                                                                        *
 * / \                                                            qs_scf.F:611 *
 *******************************************************************************


 ===== Routine Calling Stack ===== 

            3 scf_env_do_scf
            2 qs_energies
            1 CP2K

 *******************************************************************************
 *   ___                                                                       *
 *  /   \                                                                      *
 * [ABORT]                                                                     *
 *  \___/     SCF run NOT converged. To continue the calculation regardless,   *
 *    |             please set the keyword IGNORE_CONVERGENCE_FAILURE.         *
 *  O/|                                                                        *
 * /| |                                                                        *
 * / \                                                            qs_scf.F:611 *
 *******************************************************************************


 ===== Routine Calling Stack ===== 

            3 scf_env_do_scf
            2 qs_energies
            1 CP2K

 *******************************************************************************
 *   ___                                                                       *
 *  /   \                                                                      *
 * [ABORT]                                                                     *
 *  \___/     SCF run NOT converged. To continue the calculation regardless,   *
 *    |             please set the keyword IGNORE_CONVERGENCE_FAILURE.         *
 *  O/|                                                                        *
 * /| |                                                                        *
 * / \                                                            qs_scf.F:611 *
 *******************************************************************************


 ===== Routine Calling Stack ===== 

            3 scf_env_do_scf
            2 qs_energies
            1 CP2K

 *******************************************************************************
 *   ___                                                                       *
 *  /   \                                                                      *
 * [ABORT]                                                                     *
 *  \___/     SCF run NOT converged. To continue the calculation regardless,   *
 *    |             please set the keyword IGNORE_CONVERGENCE_FAILURE.         *
 *  O/|                                                                        *
 * /| |                                                                        *
 * / \                                                            qs_scf.F:611 *
 *******************************************************************************


 ===== Routine Calling Stack ===== 

            3 scf_env_do_scf
            2 qs_energies
            1 CP2K

 *******************************************************************************
 *   ___                                                                       *
 *  /   \                                                                      *
 * [ABORT]                                                                     *
 *  \___/     SCF run NOT converged. To continue the calculation regardless,   *
 *    |             please set the keyword IGNORE_CONVERGENCE_FAILURE.         *
 *  O/|                                                                        *
 * /| |                                                                        *
 * / \                                                            qs_scf.F:611 *
 *******************************************************************************


 ===== Routine Calling Stack ===== 

            3 scf_env_do_scf
            2 qs_energies
            1 CP2K

 *******************************************************************************
 *   ___                                                                       *
 *  /   \                                                                      *
 * [ABORT]                                                                     *
 *  \___/     SCF run NOT converged. To continue the calculation regardless,   *
 *    |             please set the keyword IGNORE_CONVERGENCE_FAILURE.         *
 *  O/|                                                                        *
 * /| |                                                                        *
 * / \                                                            qs_scf.F:611 *
 *******************************************************************************


 ===== Routine Calling Stack ===== 

            3 scf_env_do_scf
            2 qs_energies
            1 CP2K

 *******************************************************************************
 *   ___                                                                       *
 *  /   \                                                                      *
 * [ABORT]                                                                     *
 *  \___/     SCF run NOT converged. To continue the calculation regardless,   *
 *    |             please set the keyword IGNORE_CONVERGENCE_FAILURE.         *
 *  O/|                                                                        *
 * /| |                                                                        *
 * / \                                                            qs_scf.F:611 *
 *******************************************************************************


 ===== Routine Calling Stack ===== 

            3 scf_env_do_scf
            2 qs_energies
            1 CP2K

 *******************************************************************************
 *   ___                                                                       *
 *  /   \                                                                      *
 * [ABORT]                                                                     *
 *  \___/     SCF run NOT converged. To continue the calculation regardless,   *
 *    |             please set the keyword IGNORE_CONVERGENCE_FAILURE.         *
 *  O/|                                                                        *
 * /| |                                                                        *
 * / \                                                            qs_scf.F:611 *
 *******************************************************************************


 ===== Routine Calling Stack ===== 

            3 scf_env_do_scf
            2 qs_energies
            1 CP2K

 *******************************************************************************
 *   ___                                                                       *
 *  /   \                                                                      *
 * [ABORT]                                                                     *
 *  \___/     SCF run NOT converged. To continue the calculation regardless,   *
 *    |             please set the keyword IGNORE_CONVERGENCE_FAILURE.         *
 *  O/|                                                                        *
 * /| |                                                                        *
 * / \                                                            qs_scf.F:611 *
 *******************************************************************************


 ===== Routine Calling Stack ===== 

            3 scf_env_do_scf
            2 qs_energies
            1 CP2K
