 DBCSR| CPU Multiplication driver                                           BLAS (U)
 DBCSR| Multrec recursion limit                                              512 (U)
 DBCSR| Multiplication stack size                                           1000 (D)
 DBCSR| Maximum elements for images                                    UNLIMITED (U)
 DBCSR| Multiplicative factor virtual images                                   1 (U)
 DBCSR| Use multiplication densification                                       T (D)
 DBCSR| Multiplication size stacks                                             3 (U)
 DBCSR| Use memory pool for CPU allocation                                     F (U)
 DBCSR| Number of 3D layers                                               SINGLE (U)
 DBCSR| Use MPI memory allocation                                              F (U)
 DBCSR| Use RMA algorithm                                                      F (U)
 DBCSR| Use Communication thread                                               T (U)
 DBCSR| Communication thread load                                             75 (D)
 DBCSR| MPI: My process id                                                     0
 DBCSR| MPI: Number of processes                                              24
 DBCSR| OMP: Current number of threads                                         4
 DBCSR| OMP: Max number of threads                                             4
 DBCSR| Split modifier for TAS multiplication algorithm                  1.0E+00 (U)


  **** **** ******  **  PROGRAM STARTED AT               2025-03-07 06:07:01.709
 ***** ** ***  *** **   PROGRAM STARTED ON                          i01r04c03s05
 **    ****   ******    PROGRAM STARTED BY                               di38fab
 ***** **    ** ** **   PROGRAM PROCESS ID                                119364
  **** **  *******  **  PROGRAM STARTED IN /hppfs/scratch/04/di38fab/05_MOL/W4-1
                                           1+ALK/c2/SZV

 CP2K| version string:                 CP2K version 2025.1 (Development Version)
 CP2K| source code revision number:                                  git:47877ba
 CP2K| cp2kflags: omp libint fftw3 libxc parallel scalapack max_contr=4         
 CP2K| is freely available from                            https://www.cp2k.org/
 CP2K| Program compiled at                          Thu Feb 20 16:00:34 CET 2025
 CP2K| Program compiled on                                               login04
 CP2K| Program compiled for                                        Supermuc-foss
 CP2K| Data directory path          /hppfs/work/pn36zo/di38fab/newcp2k/cp2k/data
 CP2K| Input file name                                                    GW.inp

 GLOBAL| Force Environment number                                              1
 GLOBAL| Basis set file name            /hppfs/scratch/04/di38fab/04_TMD/BASIS_A
 GLOBAL| Potential file name            /hppfs/work/pn36zo/di38fab/cp2k/data/ALL
 GLOBAL| MM Potential file name                                     MM_POTENTIAL
 GLOBAL| Coordinate file name                                      __STD_INPUT__
 GLOBAL| Method name                                                        CP2K
 GLOBAL| Project name                                                       MoS2
 GLOBAL| Run type                                                         ENERGY
 GLOBAL| FFT library                                                       FFTW3
 GLOBAL| Diagonalization library                                       ScaLAPACK
 GLOBAL| DGEMM library                                                      BLAS
 GLOBAL| Orthonormality check for eigenvectors                          DISABLED
 GLOBAL| Matrix multiplication library                                 ScaLAPACK
 GLOBAL| All-to-all communication in single precision                          F
 GLOBAL| FFTs using library dependent lengths                                  F
 GLOBAL| Grid backend                                                       AUTO
 GLOBAL| Global print level                                               MEDIUM
 GLOBAL| MPI I/O enabled                                                       T
 GLOBAL| Total number of message passing processes                            24
 GLOBAL| Number of threads for this process                                    4
 GLOBAL| This output is from process                                           0
 GLOBAL| OpenMP stack size per thread (OMP_STACKSIZE)                    default
 GLOBAL| CPU model name             Intel(R) Xeon(R) Platinum 8174 CPU @ 3.10GHz

 MEMORY| system memory details [Kb]
 MEMORY|                        rank 0           min           max       average
 MEMORY| MemTotal             98436660      98436660      98436664      98436662
 MEMORY| MemFree              83972788      83877840      83972788      83925314
 MEMORY| Buffers                     0             0             0             0
 MEMORY| Cached                2397080       2397080       2400356       2398718
 MEMORY| Slab                  1196388       1196388       1209588       1202988
 MEMORY| SReclaimable           273568        267500        273568        270534
 MEMORY| MemLikelyFree        86643436      86545696      86643436      86594566


 *** Fundamental physical constants (SI units) ***

 *** Literature: B. J. Mohr and B. N. Taylor,
 ***             CODATA recommended values of the fundamental physical
 ***             constants: 2006, Web Version 5.1
 ***             http://physics.nist.gov/constants

 Speed of light in vacuum [m/s]                             2.99792458000000E+08
 Magnetic constant or permeability of vacuum [N/A**2]       1.25663706143592E-06
 Electric constant or permittivity of vacuum [F/m]          8.85418781762039E-12
 Planck constant (h) [J*s]                                  6.62606896000000E-34
 Planck constant (h-bar) [J*s]                              1.05457162825177E-34
 Elementary charge [C]                                      1.60217648700000E-19
 Electron mass [kg]                                         9.10938215000000E-31
 Electron g factor [ ]                                     -2.00231930436220E+00
 Proton mass [kg]                                           1.67262163700000E-27
 Fine-structure constant                                    7.29735253760000E-03
 Rydberg constant [1/m]                                     1.09737315685270E+07
 Avogadro constant [1/mol]                                  6.02214179000000E+23
 Boltzmann constant [J/K]                                   1.38065040000000E-23
 Atomic mass unit [kg]                                      1.66053878200000E-27
 Bohr radius [m]                                            5.29177208590000E-11

 *** Conversion factors ***

 [u] -> [a.u.]                                              1.82288848426455E+03
 [Angstrom] -> [Bohr] = [a.u.]                              1.88972613288564E+00
 [a.u.] = [Bohr] -> [Angstrom]                              5.29177208590000E-01
 [a.u.] -> [s]                                              2.41888432650478E-17
 [a.u.] -> [fs]                                             2.41888432650478E-02
 [a.u.] -> [J]                                              4.35974393937059E-18
 [a.u.] -> [N]                                              8.23872205491840E-08
 [a.u.] -> [K]                                              3.15774647902944E+05
 [a.u.] -> [kJ/mol]                                         2.62549961709828E+03
 [a.u.] -> [kcal/mol]                                       6.27509468713739E+02
 [a.u.] -> [Pa]                                             2.94210107994716E+13
 [a.u.] -> [bar]                                            2.94210107994716E+08
 [a.u.] -> [atm]                                            2.90362800883016E+08
 [a.u.] -> [eV]                                             2.72113838565563E+01
 [a.u.] -> [Hz]                                             6.57968392072181E+15
 [a.u.] -> [1/cm] (wave numbers)                            2.19474631370540E+05
 [a.u./Bohr**2] -> [1/cm]                                   5.14048714338585E+03
 

 CELL_TOP| Volume [angstrom^3]:                                     27000.000000
 CELL_TOP| Vector a [angstrom    30.000     0.000     0.000   |a| =    30.000000
 CELL_TOP| Vector b [angstrom     0.000    30.000     0.000   |b| =    30.000000
 CELL_TOP| Vector c [angstrom     0.000     0.000    30.000   |c| =    30.000000
 CELL_TOP| Angle (b,c), alpha [degree]:                                90.000000
 CELL_TOP| Angle (a,c), beta  [degree]:                                90.000000
 CELL_TOP| Angle (a,b), gamma [degree]:                                90.000000
 CELL_TOP| Numerically orthorhombic:                                         YES
 CELL_TOP| Periodicity                                                      NONE

 GENERATE|  Preliminary Number of Bonds generated:                             0
 GENERATE|  Achieved consistency in connectivity generation.

 CELL| Volume [angstrom^3]:                                         27000.000000
 CELL| Vector a [angstrom]:      30.000     0.000     0.000   |a| =    30.000000
 CELL| Vector b [angstrom]:       0.000    30.000     0.000   |b| =    30.000000
 CELL| Vector c [angstrom]:       0.000     0.000    30.000   |c| =    30.000000
 CELL| Angle (b,c), alpha [degree]:                                    90.000000
 CELL| Angle (a,c), beta  [degree]:                                    90.000000
 CELL| Angle (a,b), gamma [degree]:                                    90.000000
 CELL| Numerically orthorhombic:                                             YES
 CELL| Periodicity                                                          NONE

 CELL_REF| Volume [angstrom^3]:                                     27000.000000
 CELL_REF| Vector a [angstrom    30.000     0.000     0.000   |a| =    30.000000
 CELL_REF| Vector b [angstrom     0.000    30.000     0.000   |b| =    30.000000
 CELL_REF| Vector c [angstrom     0.000     0.000    30.000   |c| =    30.000000
 CELL_REF| Angle (b,c), alpha [degree]:                                90.000000
 CELL_REF| Angle (a,c), beta  [degree]:                                90.000000
 CELL_REF| Angle (a,b), gamma [degree]:                                90.000000
 CELL_REF| Numerically orthorhombic:                                         YES
 CELL_REF| Periodicity                                                      NONE

 *******************************************************************************
 *******************************************************************************
 **                                                                           **
 **     #####                         ##              ##                      **
 **    ##   ##            ##          ##              ##                      **
 **   ##     ##                       ##            ######                    **
 **   ##     ##  ##   ##  ##   #####  ##  ##   ####   ##    #####    #####    **
 **   ##     ##  ##   ##  ##  ##      ## ##   ##      ##   ##   ##  ##   ##   **
 **   ##  ## ##  ##   ##  ##  ##      ####     ###    ##   ######   ######    **
 **    ##  ###   ##   ##  ##  ##      ## ##      ##   ##   ##       ##        **
 **     #######   #####   ##   #####  ##  ##  ####    ##    #####   ##        **
 **           ##                                                    ##        **
 **                                                                           **
 **                                                ... make the atoms dance   **
 **                                                                           **
 **            Copyright (C) by CP2K developers group (2000-2025)             **
 **                      J. Chem. Phys. 152, 194103 (2020)                    **
 **                                                                           **
 *******************************************************************************

 DFT| Spin restricted Kohn-Sham (RKS) calculation                            RKS
 DFT| Multiplicity                                                             1
 DFT| Number of spin states                                                    1
 DFT| Charge                                                                   0
 DFT| Self-interaction correction (SIC)                                       NO
 DFT| Cutoffs: density                                              1.000000E-10
 DFT|          gradient                                             1.000000E-10
 DFT|          tau                                                  1.000000E-10
 DFT|          cutoff_smoothing_range                               0.000000E+00
 DFT| XC density smoothing                                                  NONE
 DFT| XC derivatives                                                          PW

 FUNCTIONAL| PBE:
 FUNCTIONAL| J.P.Perdew, K.Burke, M.Ernzerhof, Phys. Rev. Letter, vol. 77, n 18,
 FUNCTIONAL|  pp. 3865-3868, (1996)sx=0.750sc=1.000{spin unpolarized}           


 QS| Method:                                                                GAPW
 QS| Density plane wave grid type                        NON-SPHERICAL FULLSPACE
 QS| Number of grid levels:                                                    4
 QS| Density cutoff [a.u.]:                                                250.0
 QS| Multi grid cutoff [a.u.]: 1) grid level                               250.0
 QS|                           2) grid level                                83.3
 QS|                           3) grid level                                27.8
 QS|                           4) grid level                                 9.3
 QS| Grid level progression factor:                                          3.0
 QS| Relative density cutoff [a.u.]:                                        50.0
 QS| Interaction thresholds: eps_pgf_orb:                                1.0E-12
 QS|                         eps_filter_matrix:                          0.0E+00
 QS|                         eps_core_charge:                            1.0E-14
 QS|                         eps_rho_gspace:                             1.0E-12
 QS|                         eps_rho_rspace:                             1.0E-12
 QS|                         eps_gvg_rspace:                             1.0E-06
 QS|                         eps_ppl:                                    1.0E-02
 QS|                         eps_ppnl:                                   1.0E-08
 QS| GAPW|      One center basis from orbital basis primitives
 QS| GAPW|                   eps_fit:                                    1.0E-04
 QS| GAPW|                   eps_iso:                                    1.0E-12
 QS| GAPW|                   eps_svd:                                    1.0E-08
 QS| GAPW|                   eps_cpc:                                    1.0E-12
 QS| GAPW|   atom-r-grid: quadrature:                                     GC_LOG
 QS| GAPW|      atom-s-grid:  max l :                                          4
 QS| GAPW|      max_l_rho0 :                                                   2


 ATOMIC KIND INFORMATION

  1. Atomic kind: C                                     Number of atoms:       2

     Orbital Basis Set                                         aug-SZV-MOLOPT-ae

       Number of orbital shell sets:                                           2
       Number of orbital shells:                                               6
       Number of primitive Cartesian functions:                               13
       Number of Cartesian basis functions:                                   15
       Number of spherical basis functions:                                   14
       Norm type:                                                              2

       Normalised Cartesian orbitals:

                        Set   Shell   Orbital            Exponent    Coefficient

                          1       1    2s                0.070000       0.000000
                                                         0.143687       0.040037
                                                         0.313471       0.177689
                                                         0.721783       0.139661
                                                         1.876046      -0.038599
                                                         6.036200      -0.128975
                                                        30.497239      -0.122578

                          1       2    3s                0.070000      -0.142268
                                                         0.143687       0.288819
                                                         0.313471       0.010360
                                                         0.721783       0.175994
                                                         1.876046       0.000000
                                                         6.036200       0.000000
                                                        30.497239       0.000000

                          1       3    3px               0.070000       0.000000
                                                         0.143687       0.012825
                                                         0.313471       0.142381
                                                         0.721783       0.396426
                                                         1.876046       0.544234
                                                         6.036200       0.508157
                                                        30.497239       0.384077
                          1       3    3py               0.070000       0.000000
                                                         0.143687       0.012825
                                                         0.313471       0.142381
                                                         0.721783       0.396426
                                                         1.876046       0.544234
                                                         6.036200       0.508157
                                                        30.497239       0.384077
                          1       3    3pz               0.070000       0.000000
                                                         0.143687       0.012825
                                                         0.313471       0.142381
                                                         0.721783       0.396426
                                                         1.876046       0.544234
                                                         6.036200       0.508157
                                                        30.497239       0.384077

                          1       4    4px               0.070000       0.076505
                                                         0.143687      -0.086104
                                                         0.313471       0.010230
                                                         0.721783       0.129894
                                                         1.876046       0.000000
                                                         6.036200       0.000000
                                                        30.497239       0.000000
                          1       4    4py               0.070000       0.076505
                                                         0.143687      -0.086104
                                                         0.313471       0.010230
                                                         0.721783       0.129894
                                                         1.876046       0.000000
                                                         6.036200       0.000000
                                                        30.497239       0.000000
                          1       4    4pz               0.070000       0.076505
                                                         0.143687      -0.086104
                                                         0.313471       0.010230
                                                         0.721783       0.129894
                                                         1.876046       0.000000
                                                         6.036200       0.000000
                                                        30.497239       0.000000

                          1       5    4dx2              0.070000       0.004316
                                                         0.143687       0.012639
                                                         0.313471       0.125057
                                                         0.721783       0.080411
                                                         1.876046       0.000000
                                                         6.036200       0.000000
                                                        30.497239       0.000000
                          1       5    4dxy              0.070000       0.007476
                                                         0.143687       0.021892
                                                         0.313471       0.216606
                                                         0.721783       0.139276
                                                         1.876046       0.000000
                                                         6.036200       0.000000
                                                        30.497239       0.000000
                          1       5    4dxz              0.070000       0.007476
                                                         0.143687       0.021892
                                                         0.313471       0.216606
                                                         0.721783       0.139276
                                                         1.876046       0.000000
                                                         6.036200       0.000000
                                                        30.497239       0.000000
                          1       5    4dy2              0.070000       0.004316
                                                         0.143687       0.012639
                                                         0.313471       0.125057
                                                         0.721783       0.080411
                                                         1.876046       0.000000
                                                         6.036200       0.000000
                                                        30.497239       0.000000
                          1       5    4dyz              0.070000       0.007476
                                                         0.143687       0.021892
                                                         0.313471       0.216606
                                                         0.721783       0.139276
                                                         1.876046       0.000000
                                                         6.036200       0.000000
                                                        30.497239       0.000000
                          1       5    4dz2              0.070000       0.004316
                                                         0.143687       0.012639
                                                         0.313471       0.125057
                                                         0.721783       0.080411
                                                         1.876046       0.000000
                                                         6.036200       0.000000
                                                        30.497239       0.000000

                          2       1    1s              742.737049       0.929185
                                                       136.180025       1.402437
                                                        38.098264       1.841991
                                                        13.087782       1.817278
                                                         5.082369       1.004768
                                                         2.093200       0.161650

     RI Auxiliary Basis Set             RI_aug-SZV-MOLOPT-ae_N_RI_048_s_p_d_f_g_

       Number of orbital shell sets:                                          14
       Number of orbital shells:                                              14
       Number of primitive Cartesian functions:                               14
       Number of Cartesian basis functions:                                   62
       Number of spherical basis functions:                                   48
       Norm type:                                                              2

       Normalised Cartesian orbitals:

                        Set   Shell   Orbital            Exponent    Coefficient

                          1       1    1s                0.182132       0.198701

                          2       1    7px               0.213594       0.206979
                          2       1    7py               0.213594       0.206979
                          2       1    7pz               0.213594       0.206979

                          3       1   10dx2              0.381125       0.304282
                          3       1   10dxy              0.381125       0.527033
                          3       1   10dxz              0.381125       0.527033
                          3       1   10dy2              0.381125       0.304282
                          3       1   10dyz              0.381125       0.527033
                          3       1   10dz2              0.381125       0.304282

                          4       1    2s                0.433905       0.381027

                          5       1   12fx3              0.524446       0.344573
                          5       1   12fx2y             0.524446       0.770488
                          5       1   12fx2z             0.524446       0.770488
                          5       1   12fxy2             0.524446       0.770488
                          5       1   12fxyz             0.524446       1.334524
                          5       1   12fxz2             0.524446       0.770488
                          5       1   12fy3              0.524446       0.344573
                          5       1   12fy2z             0.524446       0.770488
                          5       1   12fyz2             0.524446       0.770488
                          5       1   12fz3              0.524446       0.344573

                          6       1    8px               0.915857       1.277099
                          6       1    8py               0.915857       1.277099
                          6       1    8pz               0.915857       1.277099

                          7       1   14gx4              1.217666       1.912659
                          7       1   14gx3y             1.217666       5.060419
                          7       1   14gx3z             1.217666       5.060419
                          7       1   14gx2y2            1.217666       6.532973
                          7       1   14gx2yz            1.217666      11.315442
                          7       1   14gx2z2            1.217666       6.532973
                          7       1   14gxy3             1.217666       5.060419
                          7       1   14gxy2z            1.217666      11.315442
                          7       1   14gxyz2            1.217666      11.315442
                          7       1   14gxz3             1.217666       5.060419
                          7       1   14gy4              1.217666       1.912659
                          7       1   14gy3z             1.217666       5.060419
                          7       1   14gy2z2            1.217666       6.532973
                          7       1   14gyz3             1.217666       5.060419
                          7       1   14gz4              1.217666       1.912659

                          8       1   11dx2              1.581488       3.670921
                          8       1   11dxy              1.581488       6.358221
                          8       1   11dxz              1.581488       6.358221
                          8       1   11dy2              1.581488       3.670921
                          8       1   11dyz              1.581488       6.358221
                          8       1   11dz2              1.581488       3.670921

                          9       1    3s                1.620693       1.023730

                         10       1   13fx3              2.677157      13.496481
                         10       1   13fx2y             2.677157      30.179050
                         10       1   13fx2z             2.677157      30.179050
                         10       1   13fxy2             2.677157      30.179050
                         10       1   13fxyz             2.677157      52.271648
                         10       1   13fxz2             2.677157      30.179050
                         10       1   13fy3              2.677157      13.496481
                         10       1   13fy2z             2.677157      30.179050
                         10       1   13fyz2             2.677157      30.179050
                         10       1   13fz3              2.677157      13.496481

                         11       1    4s                5.999661       2.732154

                         12       1    9px               9.284861      23.102519
                         12       1    9py               9.284861      23.102519
                         12       1    9pz               9.284861      23.102519

                         13       1    5s               22.224963       7.295262

                         14       1    6s               82.329769      19.479498

       Atomic covalent radius [Angstrom]:                                  0.770

       Atomic van der Waals radius [Angstrom]:                             1.700

     The atoms of this atomic kind are PAW atoms (GAPW):
       Hard Gaussian function radius:                                      1.512
       Rho0 radius:                                                        1.512
       Maximum GTO radius used for PAW projector construction:            24.566

     GAPW Soft Basis Set                                  aug-SZV-MOLOPT-ae_soft

       Number of orbital shell sets:                                           2
       Number of orbital shells:                                               6
       Number of primitive Cartesian functions:                                6
       Number of Cartesian basis functions:                                   15
       Number of spherical basis functions:                                   14
       Norm type:                                                              2

       Normalised Cartesian orbitals:

                        Set   Shell   Orbital            Exponent    Coefficient

                          1       1    2s                0.070000       0.000000
                                                         0.143687       0.040037
                                                         0.313471       0.177689
                                                         0.721783       0.139661
                                                         1.876046      -0.038599

                          1       2    3s                0.070000      -0.142268
                                                         0.143687       0.288819
                                                         0.313471       0.010360
                                                         0.721783       0.175994
                                                         1.876046       0.000000

                          1       3    3px               0.070000       0.000000
                                                         0.143687       0.012825
                                                         0.313471       0.142381
                                                         0.721783       0.396426
                                                         1.876046       0.544234
                          1       3    3py               0.070000       0.000000
                                                         0.143687       0.012825
                                                         0.313471       0.142381
                                                         0.721783       0.396426
                                                         1.876046       0.544234
                          1       3    3pz               0.070000       0.000000
                                                         0.143687       0.012825
                                                         0.313471       0.142381
                                                         0.721783       0.396426
                                                         1.876046       0.544234

                          1       4    4px               0.070000       0.076505
                                                         0.143687      -0.086104
                                                         0.313471       0.010230
                                                         0.721783       0.129894
                                                         1.876046       0.000000
                          1       4    4py               0.070000       0.076505
                                                         0.143687      -0.086104
                                                         0.313471       0.010230
                                                         0.721783       0.129894
                                                         1.876046       0.000000
                          1       4    4pz               0.070000       0.076505
                                                         0.143687      -0.086104
                                                         0.313471       0.010230
                                                         0.721783       0.129894
                                                         1.876046       0.000000

                          1       5    4dx2              0.070000       0.004316
                                                         0.143687       0.012639
                                                         0.313471       0.125057
                                                         0.721783       0.080411
                                                         1.876046       0.000000
                          1       5    4dxy              0.070000       0.007476
                                                         0.143687       0.021892
                                                         0.313471       0.216606
                                                         0.721783       0.139276
                                                         1.876046       0.000000
                          1       5    4dxz              0.070000       0.007476
                                                         0.143687       0.021892
                                                         0.313471       0.216606
                                                         0.721783       0.139276
                                                         1.876046       0.000000
                          1       5    4dy2              0.070000       0.004316
                                                         0.143687       0.012639
                                                         0.313471       0.125057
                                                         0.721783       0.080411
                                                         1.876046       0.000000
                          1       5    4dyz              0.070000       0.007476
                                                         0.143687       0.021892
                                                         0.313471       0.216606
                                                         0.721783       0.139276
                                                         1.876046       0.000000
                          1       5    4dz2              0.070000       0.004316
                                                         0.143687       0.012639
                                                         0.313471       0.125057
                                                         0.721783       0.080411
                                                         1.876046       0.000000

                          2       1    1s                2.093200       0.161650

     AE Potential information for                                            ALL

       Description:                                       All-electron potential
                                          Krack, Parrinello, PCCP 2, 2105 (2000)

       Gaussian exponent of the core charge distribution:               4.109048
       Electronic configuration (s p d ...):                           4   2   0


 MOLECULE KIND INFORMATION


 All atoms are their own molecule, skipping detailed information


 TOTAL NUMBERS AND MAXIMUM NUMBERS

  Total number of            - Atomic kinds:                                   1
                             - Atoms:                                          2
                             - Shell sets:                                     4
                             - Shells:                                        12
                             - Primitive Cartesian functions:                 26
                             - Cartesian basis functions:                     30
                             - Spherical basis functions:                     28

  Maximum angular momentum of the orbital basis functions:                     2


 MODULE QUICKSTEP: ATOMIC COORDINATES IN ANGSTROM

   Atom Kind Element         X             Y             Z       Z(eff)     Mass
      1    1 C     6     15.620000     15.000000     15.000000   6.0000  12.0107
      2    1 C     6     14.380000     15.000000     15.000000   6.0000  12.0107



 SCF PARAMETERS         Density guess:                                    ATOMIC
                        --------------------------------------------------------
                        max_scf:                                             500
                        max_scf_history:                                       0
                        max_diis:                                              4
                        --------------------------------------------------------
                        eps_scf:                                        1.00E-06
                        eps_scf_history:                                0.00E+00
                        eps_diis:                                       1.00E-01
                        eps_eigval:                                     1.00E-05
                        --------------------------------------------------------
                        level_shift [a.u.]:                             0.000000
                        added MOs                                        22    0
                        --------------------------------------------------------
                        Mixing method:                            BROYDEN_MIXING
                                                charge density mixing in g-space
                        --------------------------------------------------------
                        No outer SCF

 PW_GRID| Information for grid number                                          1
 PW_GRID| Grid distributed over                                    24 processors
 PW_GRID| Real space group dimensions                                    24    1
 PW_GRID| the grid is blocked:                                                NO
 PW_GRID| Cutoff [a.u.]                                                    250.0
 PW_GRID| spherical cutoff:                                                   NO
 PW_GRID|   Bounds   1           -202     202                Points:         405
 PW_GRID|   Bounds   2           -202     202                Points:         405
 PW_GRID|   Bounds   3           -202     202                Points:         405
 PW_GRID| Volume element (a.u.^3)  0.2743E-02     Volume (a.u.^3)    182205.0337
 PW_GRID| Grid span                                                    FULLSPACE
 PW_GRID|   Distribution                         Average         Max         Min
 PW_GRID|   G-Vectors                          2767921.9     2768175     2767770
 PW_GRID|   G-Rays                                6834.4        6835        6834
 PW_GRID|   Real Space Points                  2767921.9     2788425     2624400

 PW_GRID| Information for grid number                                          2
 PW_GRID| Number of the reference grid                                         1
 PW_GRID| Grid distributed over                                    24 processors
 PW_GRID| Real space group dimensions                                    24    1
 PW_GRID| the grid is blocked:                                                NO
 PW_GRID| Cutoff [a.u.]                                                     83.3
 PW_GRID| spherical cutoff:                                                   NO
 PW_GRID|   Bounds   1           -120     119                Points:         240
 PW_GRID|   Bounds   2           -120     119                Points:         240
 PW_GRID|   Bounds   3           -120     119                Points:         240
 PW_GRID| Volume element (a.u.^3)  0.1318E-01     Volume (a.u.^3)    182205.0337
 PW_GRID| Grid span                                                    FULLSPACE
 PW_GRID|   Distribution                         Average         Max         Min
 PW_GRID|   G-Vectors                           576000.0      576240      575760
 PW_GRID|   G-Rays                                2400.0        2401        2399
 PW_GRID|   Real Space Points                   576000.0      576000      576000

 PW_GRID| Information for grid number                                          3
 PW_GRID| Number of the reference grid                                         1
 PW_GRID| Grid distributed over                                    24 processors
 PW_GRID| Real space group dimensions                                    24    1
 PW_GRID| the grid is blocked:                                                NO
 PW_GRID| Cutoff [a.u.]                                                     27.8
 PW_GRID| spherical cutoff:                                                   NO
 PW_GRID|   Bounds   1            -67      67                Points:         135
 PW_GRID|   Bounds   2            -67      67                Points:         135
 PW_GRID|   Bounds   3            -67      67                Points:         135
 PW_GRID| Volume element (a.u.^3)  0.7406E-01     Volume (a.u.^3)    182205.0337
 PW_GRID| Grid span                                                    FULLSPACE
 PW_GRID|   Distribution                         Average         Max         Min
 PW_GRID|   G-Vectors                           102515.6      102735      102330
 PW_GRID|   G-Rays                                 759.4         761         758
 PW_GRID|   Real Space Points                   102515.6      109350       91125

 PW_GRID| Information for grid number                                          4
 PW_GRID| Number of the reference grid                                         1
 PW_GRID| Grid distributed over                                    24 processors
 PW_GRID| Real space group dimensions                                    24    1
 PW_GRID| the grid is blocked:                                                NO
 PW_GRID| Cutoff [a.u.]                                                      9.3
 PW_GRID| spherical cutoff:                                                   NO
 PW_GRID|   Bounds   1            -40      39                Points:          80
 PW_GRID|   Bounds   2            -40      39                Points:          80
 PW_GRID|   Bounds   3            -40      39                Points:          80
 PW_GRID| Volume element (a.u.^3)  0.3559         Volume (a.u.^3)    182205.0337
 PW_GRID| Grid span                                                    FULLSPACE
 PW_GRID|   Distribution                         Average         Max         Min
 PW_GRID|   G-Vectors                            21333.3       21360       21280
 PW_GRID|   G-Rays                                 266.7         267         266
 PW_GRID|   Real Space Points                    21333.3       25600       19200

 POISSON| Solver                                                         WAVELET
 POISSON| Wavelet| Scaling function                                           40
 POISSON| Periodicity                                                       NONE

 RS_GRID| Information for grid number                                          1
 RS_GRID|   Bounds   1           -202     202                Points:         405
 RS_GRID|   Bounds   2           -202     202                Points:         405
 RS_GRID|   Bounds   3           -202     202                Points:         405
 RS_GRID| Real space distribution over                                  4 groups
 RS_GRID| Real space distribution along direction                              2
 RS_GRID| Border size                                                         33
 RS_GRID| Real space distribution over                                  6 groups
 RS_GRID| Real space distribution along direction                              3
 RS_GRID| Border size                                                         33
 RS_GRID|   Distribution                         Average         Max         Min
 RS_GRID|   Planes                                 167.2         168         167
 RS_GRID|   Distribution                         Average         Max         Min
 RS_GRID|   Planes                                 133.5         134         133

 RS_GRID| Information for grid number                                          2
 RS_GRID|   Bounds   1           -120     119                Points:         240
 RS_GRID|   Bounds   2           -120     119                Points:         240
 RS_GRID|   Bounds   3           -120     119                Points:         240
 RS_GRID| Real space distribution over                                  4 groups
 RS_GRID| Real space distribution along direction                              2
 RS_GRID| Border size                                                         35
 RS_GRID| Real space distribution over                                  6 groups
 RS_GRID| Real space distribution along direction                              3
 RS_GRID| Border size                                                         35
 RS_GRID|   Distribution                         Average         Max         Min
 RS_GRID|   Planes                                 130.0         130         130
 RS_GRID|   Distribution                         Average         Max         Min
 RS_GRID|   Planes                                 110.0         110         110

 RS_GRID| Information for grid number                                          3
 RS_GRID|   Bounds   1            -67      67                Points:         135
 RS_GRID|   Bounds   2            -67      67                Points:         135
 RS_GRID|   Bounds   3            -67      67                Points:         135
 RS_GRID| Real space fully replicated
 RS_GRID| Group size                                                           1

 RS_GRID| Information for grid number                                          4
 RS_GRID|   Bounds   1            -40      39                Points:          80
 RS_GRID|   Bounds   2            -40      39                Points:          80
 RS_GRID|   Bounds   3            -40      39                Points:          80
 RS_GRID| Real space fully replicated
 RS_GRID| Group size                                                           1

  HFX_INFO| Replica ID:                                                        1
  HFX_INFO| FRACTION:                                               0.2500000000
  HFX_INFO| Interaction Potential:                                       COULOMB
  HFX_INFO| EPS_SCHWARZ:                                                 1.0E-10
  HFX_INFO| EPS_SCHWARZ_FORCES                                           1.0E-08
  HFX_INFO| EPS_STORAGE_SCALING:                                         1.0E+00
  HFX_INFO| NBINS:                                                            64
  HFX_INFO| BLOCK_SIZE:                                                        1
  HFX_INFO| Number of periodic shells considered:                           NONE
  HFX_INFO| Number of periodic cells considered:                            NONE

 
 RI-RPA| using GPW style
 

 OVERLAP MATRIX CONDITION NUMBER
 1-Norm Condition Number (Estimate)
   CN : |A|*|A^-1|:  4.289E+000 *  1.449E+002   = 6.216E+002  Log(1-CN):  2.7935
 1-Norm and 2-Norm Condition Numbers using Diagonalization
   CN : |A|*|A^-1|:  4.289E+000 *  1.449E+002   = 6.216E+002  Log(1-CN):  2.7935
   CN : max/min ev:  3.122E+000 /  7.957E-003   = 3.923E+002  Log(2-CN):  2.5936

 Number of electrons:                                                         12
 Number of occupied orbitals:                                                  6
 Number of molecular orbitals:                                                28

 Number of orbital functions:                                                 28
 Number of independent orbital functions:                                     28

 Extrapolation method: initial_guess

 Atomic guess: The first density matrix is obtained in terms of atomic orbitals
               and electronic configurations assigned to each atomic kind

 Guess for atomic kind: C

 Electronic structure
    Total number of core electrons                                          0.00
    Total number of valence electrons                                       6.00
    Total number of electrons                                               6.00
    Multiplicity                                                   not specified
    S      2.00  2.00
    P      2.00


 *******************************************************************************
                  Iteration          Convergence                     Energy [au]
 *******************************************************************************
                          1        0.181972E-01                 -37.327047058214
                          2        0.113690E-01                 -37.327375013153
                          3        0.204442E-03                 -37.327563854518
                          4        0.318580E-06                 -37.327563914839

 Energy components [Hartree]           Total Energy ::          -37.327563914839
                                        Band Energy ::          -20.907151793925
                                     Kinetic Energy ::           37.918401132701
                                   Potential Energy ::          -75.245965047540
                                      Virial (-V/T) ::            1.984418192745
                                        Core Energy ::          -50.466619839572
                                          XC Energy ::           -4.803795746723
                                     Coulomb Energy ::           17.942851671456

 Orbital energies  State     L     Occupation   Energy[a.u.]          Energy[eV]

                       1     0          2.000      -9.826687         -267.397747
                       2     0          2.000      -0.471401          -12.827469

                       1     1          2.000      -0.155488           -4.231050


 Total Electron Density at R=0:                                       107.717880
 Re-scaling the density matrix to get the right number of electrons
                  # Electrons              Trace(P)               Scaling factor
                           12                12.000                        1.000


 SCF WAVEFUNCTION OPTIMIZATION

  Step     Update method      Time    Convergence         Total energy    Change
  ------------------------------------------------------------------------------

  HFX_MEM_INFO| Est. max. program size before HFX [MiB]:                    2137
  HFX_MEM_INFO| Number of cart. primitive ERI's calculated:            191263304
  HFX_MEM_INFO| Number of sph. ERI's calculated:                          230496
  HFX_MEM_INFO| Number of sph. ERI's stored in-core:                      230496
  HFX_MEM_INFO| Number of sph. ERI's stored on disk:                           0
  HFX_MEM_INFO| Number of sph. ERI's calculated on the fly:                    0
  HFX_MEM_INFO| Total memory consumption ERI's RAM [MiB]:                      2
  HFX_MEM_INFO| Whereof max-vals [MiB]:                                        1
  HFX_MEM_INFO| Total compression factor ERI's RAM:                         1.10
  HFX_MEM_INFO| Total memory consumption ERI's disk [MiB]:                     0
  HFX_MEM_INFO| Total compression factor ERI's disk:                        0.00
  HFX_MEM_INFO| Size of density/Fock matrix [MiB]:                             0
  HFX_MEM_INFO| Size of buffers [MiB]:                                         0
  HFX_MEM_INFO| Est. max. program size after HFX  [MiB]:                    2647

     1 NoMix/Diag. 0.10E+00    8.3     1.32591114       -75.7719229692 -7.58E+01
     2 Broy./Diag. 0.10E+00    4.7     0.07035765       -75.8326049100 -6.07E-02
     3 Broy./Diag. 0.10E+00    4.9     0.01253433       -75.8138421366  1.88E-02
     4 Broy./Diag. 0.10E+00    4.8     0.07463632       -75.4723750320  3.41E-01
     5 Broy./Diag. 0.10E+00    4.9     0.01673072       -75.5200580825 -4.77E-02
     6 Broy./Diag. 0.10E+00    4.9     0.02360516       -75.5654084809 -4.54E-02
     7 Broy./Diag. 0.10E+00    5.1     0.01289249       -75.5987441072 -3.33E-02
     8 Broy./Diag. 0.10E+00    5.2     0.00461396       -75.6140421523 -1.53E-02
     9 Broy./Diag. 0.10E+00    5.5     0.01027230       -75.6279836283 -1.39E-02
    10 Broy./Diag. 0.10E+00    5.7     0.00262021       -75.6364107129 -8.43E-03
    11 Broy./Diag. 0.10E+00    5.7     0.00970992       -75.6283617784  8.05E-03
    12 Broy./Diag. 0.10E+00    5.8     0.00247358       -75.6323132818 -3.95E-03
    13 Broy./Diag. 0.10E+00    5.6     0.00212290       -75.6357893991 -3.48E-03
    14 Broy./Diag. 0.10E+00    5.6     0.00314677       -75.6423693915 -6.58E-03
    15 Broy./Diag. 0.10E+00    5.5     0.00072808       -75.6452190201 -2.85E-03
    16 Broy./Diag. 0.10E+00    5.5     0.00096928       -75.6438408794  1.38E-03
    17 Broy./Diag. 0.10E+00    5.5     0.00091562       -75.6442991012 -4.58E-04
    18 Broy./Diag. 0.10E+00    5.5     0.00085083       -75.6439877073  3.11E-04
    19 Broy./Diag. 0.10E+00    5.4     0.00036697       -75.6427031526  1.28E-03
    20 Broy./Diag. 0.10E+00    5.4     0.00176629       -75.6425483792  1.55E-04
    21 Broy./Diag. 0.10E+00    5.3     0.00174650       -75.6428174913 -2.69E-04
    22 Broy./Diag. 0.10E+00    5.3     0.00116925       -75.6427617216  5.58E-05
    23 Broy./Diag. 0.10E+00    5.4     0.00151359       -75.6428714888 -1.10E-04
    24 Broy./Diag. 0.10E+00    5.5     0.00138231       -75.6425790231  2.92E-04
    25 Broy./Diag. 0.10E+00    5.9     0.00129722       -75.6427756633 -1.97E-04
    26 Broy./Diag. 0.10E+00    5.9     0.00111493       -75.6426564388  1.19E-04
    27 Broy./Diag. 0.10E+00    5.7     0.00112673       -75.6432908417 -6.34E-04
    28 Broy./Diag. 0.10E+00    5.7     0.00122346       -75.6431642122  1.27E-04
    29 Broy./Diag. 0.10E+00    5.8     0.00096874       -75.6430729991  9.12E-05
    30 Broy./Diag. 0.10E+00    5.5     0.00111363       -75.6432055672 -1.33E-04
    31 Broy./Diag. 0.10E+00    5.4     0.00087127       -75.6430577186  1.48E-04
    32 Broy./Diag. 0.10E+00    5.5     0.00092296       -75.6429863303  7.14E-05
    33 Broy./Diag. 0.10E+00    5.5     0.00113311       -75.6429348514  5.15E-05
    34 Broy./Diag. 0.10E+00    5.4     0.00108029       -75.6429068734  2.80E-05
    35 Broy./Diag. 0.10E+00    5.3     0.00103525       -75.6432183427 -3.11E-04
    36 Broy./Diag. 0.10E+00    5.3     0.00049757       -75.6433745255 -1.56E-04
    37 Broy./Diag. 0.10E+00    5.3     0.00066204       -75.6432048998  1.70E-04
    38 Broy./Diag. 0.10E+00    5.4     0.00077232       -75.6432445743 -3.97E-05
    39 Broy./Diag. 0.10E+00    5.3     0.00073310       -75.6436631553 -4.19E-04
    40 Broy./Diag. 0.10E+00    5.4     0.00137272       -75.6427909617  8.72E-04
    41 Broy./Diag. 0.10E+00    5.8     0.00043293       -75.6432456195 -4.55E-04
    42 Broy./Diag. 0.10E+00    5.8     0.00194918       -75.6428472885  3.98E-04
    43 Broy./Diag. 0.10E+00    6.0     0.00191019       -75.6430699856 -2.23E-04
    44 Broy./Diag. 0.10E+00    5.6     0.00110757       -75.6424913379  5.79E-04
    45 Broy./Diag. 0.10E+00    5.6     0.00246124       -75.6428436002 -3.52E-04
    46 Broy./Diag. 0.10E+00    5.6     0.00111089       -75.6429471892 -1.04E-04
    47 Broy./Diag. 0.10E+00    5.6     0.00085335       -75.6428142808  1.33E-04
    48 Broy./Diag. 0.10E+00    5.5     0.00723620       -75.6458936830 -3.08E-03
    49 Broy./Diag. 0.10E+00    5.6     0.00632584       -75.6454897517  4.04E-04
    50 Broy./Diag. 0.10E+00    5.6     0.00495714       -75.6441200075  1.37E-03
    51 Broy./Diag. 0.10E+00    5.3     0.00227150       -75.6429590842  1.16E-03
    52 Broy./Diag. 0.10E+00    5.4     0.00172940       -75.6425632182  3.96E-04
    53 Broy./Diag. 0.10E+00    5.3     0.00067457       -75.6421715058  3.92E-04
    54 Broy./Diag. 0.10E+00    5.3     0.00098644       -75.6419858337  1.86E-04
    55 Broy./Diag. 0.10E+00    5.3     0.00111430       -75.6419829037  2.93E-06
    56 Broy./Diag. 0.10E+00    5.4     0.00077230       -75.6418835945  9.93E-05
    57 Broy./Diag. 0.10E+00    5.9     0.00033344       -75.6421195352 -2.36E-04
    58 Broy./Diag. 0.10E+00    5.8     0.00042284       -75.6428141940 -6.95E-04
    59 Broy./Diag. 0.10E+00    5.7     0.00035607       -75.6427569376  5.73E-05
    60 Broy./Diag. 0.10E+00    5.7     0.00022521       -75.6428035376 -4.66E-05
    61 Broy./Diag. 0.10E+00    5.6     0.00022262       -75.6428096498 -6.11E-06
    62 Broy./Diag. 0.10E+00    5.6     0.00028615       -75.6428301666 -2.05E-05
    63 Broy./Diag. 0.10E+00    5.6     0.00035839       -75.6428635150 -3.33E-05
    64 Broy./Diag. 0.10E+00    5.5     0.00044841       -75.6428327858  3.07E-05
    65 Broy./Diag. 0.10E+00    5.4     0.00095727       -75.6427770181  5.58E-05
    66 Broy./Diag. 0.10E+00    5.4     0.00068884       -75.6426283758  1.49E-04
    67 Broy./Diag. 0.10E+00    5.4     0.00083557       -75.6429317686 -3.03E-04
    68 Broy./Diag. 0.10E+00    5.3     0.00102946       -75.6430490472 -1.17E-04
    69 Broy./Diag. 0.10E+00    5.3     0.00130078       -75.6428364722  2.13E-04
    70 Broy./Diag. 0.10E+00    5.3     0.00164510       -75.6426607991  1.76E-04
    71 Broy./Diag. 0.10E+00    5.4     0.00208470       -75.6426703123 -9.51E-06
    72 Broy./Diag. 0.10E+00    5.4     0.00259018       -75.6426707570 -4.45E-07
    73 Broy./Diag. 0.10E+00    5.7     0.00324170       -75.6419980387  6.73E-04
    74 Broy./Diag. 0.10E+00    5.8     0.00405141       -75.6417665732  2.31E-04
    75 Broy./Diag. 0.10E+00    5.8     0.00507259       -75.6416767368  8.98E-05
    76 Broy./Diag. 0.10E+00    5.7     0.00629534       -75.6418245113 -1.48E-04
    77 Broy./Diag. 0.10E+00    5.7     0.00784036       -75.6414888472  3.36E-04
    78 Broy./Diag. 0.10E+00    5.6     0.00974181       -75.6407135931  7.75E-04
    79 Broy./Diag. 0.10E+00    5.5     0.01209407       -75.6391709785  1.54E-03
    80 Broy./Diag. 0.10E+00    5.5     0.01496138       -75.6371570155  2.01E-03
    81 Broy./Diag. 0.10E+00    5.5     0.01809081       -75.6340900792  3.07E-03
    82 Broy./Diag. 0.10E+00    5.4     0.02146979       -75.6289368131  5.15E-03
    83 Broy./Diag. 0.10E+00    5.4     0.02493096       -75.6211551655  7.78E-03
    84 Broy./Diag. 0.10E+00    5.4     0.03027730       -75.6103231035  1.08E-02
    85 Broy./Diag. 0.10E+00    5.3     0.04357544       -75.5967765379  1.35E-02
    86 Broy./Diag. 0.10E+00    5.3     0.05693302       -75.5776780261  1.91E-02
    87 Broy./Diag. 0.10E+00    5.5     0.06919497       -75.5512458732  2.64E-02
    88 Broy./Diag. 0.10E+00    5.5     0.07806121       -75.5173950603  3.39E-02
    89 Broy./Diag. 0.10E+00    5.6     0.08064283       -75.4795612245  3.78E-02
    90 Broy./Diag. 0.10E+00    5.8     0.07552679       -75.4411032808  3.85E-02
    91 Broy./Diag. 0.10E+00    5.8     0.06537261       -75.4047665207  3.63E-02
    92 Broy./Diag. 0.10E+00    5.8     0.05749759       -75.3715411143  3.32E-02
    93 Broy./Diag. 0.10E+00    5.7     0.04785183       -75.3387945517  3.27E-02
    94 Broy./Diag. 0.10E+00    5.6     0.03837014       -75.2980546264  4.07E-02
    95 Broy./Diag. 0.10E+00    5.5     0.02277887       -75.2576166845  4.04E-02
    96 Broy./Diag. 0.10E+00    5.5     0.02145358       -75.2315041201  2.61E-02
    97 Broy./Diag. 0.10E+00    5.5     0.01896170       -75.2022968585  2.92E-02
    98 Broy./Diag. 0.10E+00    5.6     0.01384707       -75.1647828705  3.75E-02
    99 Broy./Diag. 0.10E+00    5.4     0.04914268       -75.3136323395 -1.49E-01
   100 Broy./Diag. 0.10E+00    5.6     0.02882285       -75.4081018052 -9.45E-02
   101 Broy./Diag. 0.10E+00    5.8     0.09705527       -75.7749710548 -3.67E-01
   102 Broy./Diag. 0.10E+00    5.9     0.10433070       -75.8656927699 -9.07E-02
   103 Broy./Diag. 0.10E+00    5.7     0.08586539       -75.6440100660  2.22E-01
   104 Broy./Diag. 0.10E+00    5.6     0.07023641       -75.6530806790 -9.07E-03
   105 Broy./Diag. 0.10E+00    5.6     0.14410985       -75.5440715970  1.09E-01
   106 Broy./Diag. 0.10E+00    5.6     0.25265247       -75.3723269921  1.72E-01
   107 Broy./Diag. 0.10E+00    5.5     0.22886927       -75.2298536533  1.42E-01
   108 Broy./Diag. 0.10E+00    5.5     0.05597329       -75.1489270172  8.09E-02
   109 Broy./Diag. 0.10E+00    5.4     0.18098077       -75.5408442906 -3.92E-01
   110 Broy./Diag. 0.10E+00    5.4     0.23608627       -75.7415303483 -2.01E-01
   111 Broy./Diag. 0.10E+00    5.3     0.04319348       -75.6568660190  8.47E-02
   112 Broy./Diag. 0.10E+00    5.4     0.04525636       -75.5846990615  7.22E-02
   113 Broy./Diag. 0.10E+00    5.4     0.05899006       -75.6174867404 -3.28E-02
   114 Broy./Diag. 0.10E+00    5.4     0.04030225       -75.6402152489 -2.27E-02
   115 Broy./Diag. 0.10E+00    5.5     0.02921889       -75.6378739647  2.34E-03
   116 Broy./Diag. 0.10E+00    5.4     0.03605541       -75.6315086920  6.37E-03
   117 Broy./Diag. 0.10E+00    5.9     0.03696580       -75.6386503176 -7.14E-03
   118 Broy./Diag. 0.10E+00    5.7     0.04231475       -75.6330024837  5.65E-03
   119 Broy./Diag. 0.10E+00    5.9     0.04687377       -75.6375606656 -4.56E-03
   120 Broy./Diag. 0.10E+00    5.7     0.03805580       -75.6446237880 -7.06E-03
   121 Broy./Diag. 0.10E+00    5.6     0.03485406       -75.6451795626 -5.56E-04
   122 Broy./Diag. 0.10E+00    5.7     0.03521758       -75.6442063807  9.73E-04
   123 Broy./Diag. 0.10E+00    5.5     0.03977123       -75.6193805894  2.48E-02
   124 Broy./Diag. 0.10E+00    5.5     0.04457357       -75.5879737547  3.14E-02
   125 Broy./Diag. 0.10E+00    5.5     0.05239478       -75.5494954751  3.85E-02
   126 Broy./Diag. 0.10E+00    5.5     0.05133103       -75.5213984074  2.81E-02
   127 Broy./Diag. 0.10E+00    5.5     0.06450832       -75.4796546078  4.17E-02
   128 Broy./Diag. 0.10E+00    5.5     0.07487136       -75.4114810630  6.82E-02
   129 Broy./Diag. 0.10E+00    5.5     0.08515342       -75.3708181499  4.07E-02
   130 Broy./Diag. 0.10E+00    5.4     0.06746485       -75.3533361785  1.75E-02
   131 Broy./Diag. 0.10E+00    5.3     0.04456557       -75.3958066779 -4.25E-02
   132 Broy./Diag. 0.10E+00    5.4     0.05267452       -75.4706212808 -7.48E-02
   133 Broy./Diag. 0.10E+00    5.8     0.07591100       -75.5069598832 -3.63E-02
   134 Broy./Diag. 0.10E+00    5.7     0.07630303       -75.4904221073  1.65E-02
   135 Broy./Diag. 0.10E+00    5.9     0.07592515       -75.5371759386 -4.68E-02
   136 Broy./Diag. 0.10E+00    5.6     0.11174826       -75.5494417047 -1.23E-02
   137 Broy./Diag. 0.10E+00    5.6     0.09117483       -75.4969251251  5.25E-02
   138 Broy./Diag. 0.10E+00    5.5     0.03328839       -75.4545844123  4.23E-02
   139 Broy./Diag. 0.10E+00    5.4     0.08056813       -75.2512701155  2.03E-01
   140 Broy./Diag. 0.10E+00    5.4     0.06545753       -75.3012052548 -4.99E-02
   141 Broy./Diag. 0.10E+00    5.4     0.05890105       -75.4228926700 -1.22E-01
   142 Broy./Diag. 0.10E+00    5.5     0.06076814       -75.3568919347  6.60E-02
   143 Broy./Diag. 0.10E+00    5.5     0.12393752       -75.4375049584 -8.06E-02
   144 Broy./Diag. 0.10E+00    5.4     0.10985952       -75.2922331151  1.45E-01
   145 Broy./Diag. 0.10E+00    5.6     0.13611707       -75.2612112433  3.10E-02
   146 Broy./Diag. 0.10E+00    5.9     0.14634115       -75.2494287080  1.18E-02
   147 Broy./Diag. 0.10E+00    5.7     0.07739906       -75.4186016475 -1.69E-01
   148 Broy./Diag. 0.10E+00    5.9     0.09806437       -75.5490432543 -1.30E-01
   149 Broy./Diag. 0.10E+00    5.6     0.12790609       -75.6565559266 -1.08E-01
   150 Broy./Diag. 0.10E+00    5.5     0.09473105       -75.6470351201  9.52E-03
   151 Broy./Diag. 0.10E+00    5.5     0.08079610       -75.7180466234 -7.10E-02
   152 Broy./Diag. 0.10E+00    5.7     0.08233751       -75.7772063580 -5.92E-02
   153 Broy./Diag. 0.10E+00    5.4     0.05793569       -75.7468793716  3.03E-02
   154 Broy./Diag. 0.10E+00    5.4     0.04700767       -75.6184983816  1.28E-01
   155 Broy./Diag. 0.10E+00    5.4     0.08186989       -75.5553461906  6.32E-02
   156 Broy./Diag. 0.10E+00    5.7     0.07825012       -75.6139628513 -5.86E-02
   157 Broy./Diag. 0.10E+00    5.7     0.03806138       -75.6361565850 -2.22E-02
   158 Broy./Diag. 0.10E+00    5.7     0.04020591       -75.6131592617  2.30E-02
   159 Broy./Diag. 0.10E+00    5.8     0.03597943       -75.6299294707 -1.68E-02
   160 Broy./Diag. 0.10E+00    5.7     0.03286655       -75.6557513590 -2.58E-02
   161 Broy./Diag. 0.10E+00    5.6     0.04055387       -75.6636214704 -7.87E-03
   162 Broy./Diag. 0.10E+00    5.5     0.04600380       -75.6697807315 -6.16E-03
   163 Broy./Diag. 0.10E+00    5.4     0.04476786       -75.6747396427 -4.96E-03
   164 Broy./Diag. 0.10E+00    5.4     0.04248162       -75.6640813276  1.07E-02
   165 Broy./Diag. 0.10E+00    5.4     0.06144104       -75.6640488135  3.25E-05
   166 Broy./Diag. 0.10E+00    5.3     0.05302133       -75.6586952887  5.35E-03
   167 Broy./Diag. 0.10E+00    5.3     0.06846330       -75.6261834312  3.25E-02
   168 Broy./Diag. 0.10E+00    5.4     0.06514202       -75.6013409157  2.48E-02
   169 Broy./Diag. 0.10E+00    5.5     0.04722782       -75.5899646113  1.14E-02
   170 Broy./Diag. 0.10E+00    5.4     0.02253247       -75.5865952849  3.37E-03
   171 Broy./Diag. 0.10E+00    5.7     0.02659158       -75.5863087050  2.87E-04
   172 Broy./Diag. 0.10E+00    5.7     0.04146496       -75.6014671124 -1.52E-02
   173 Broy./Diag. 0.10E+00    5.8     0.06338276       -75.6106548818 -9.19E-03
   174 Broy./Diag. 0.10E+00    5.6     0.06921319       -75.6323912326 -2.17E-02
   175 Broy./Diag. 0.10E+00    5.5     0.07854067       -75.6621304276 -2.97E-02
   176 Broy./Diag. 0.10E+00    5.5     0.05837552       -75.6782684836 -1.61E-02
   177 Broy./Diag. 0.10E+00    5.5     0.04197509       -75.6802602172 -1.99E-03
   178 Broy./Diag. 0.10E+00    5.5     0.04095011       -75.6706912585  9.57E-03
   179 Broy./Diag. 0.10E+00    5.4     0.05477098       -75.6714042635 -7.13E-04
   180 Broy./Diag. 0.10E+00    5.3     0.04550015       -75.6792920897 -7.89E-03
   181 Broy./Diag. 0.10E+00    5.3     0.03606302       -75.6811084656 -1.82E-03
   182 Broy./Diag. 0.10E+00    5.3     0.03667169       -75.6774260184  3.68E-03
   183 Broy./Diag. 0.10E+00    5.4     0.07016431       -75.6865095827 -9.08E-03
   184 Broy./Diag. 0.10E+00    5.7     0.05294023       -75.6413704462  4.51E-02
   185 Broy./Diag. 0.10E+00    5.7     0.02568525       -75.6173029821  2.41E-02
   186 Broy./Diag. 0.10E+00    5.8     0.02064759       -75.6191534708 -1.85E-03
   187 Broy./Diag. 0.10E+00    5.6     0.01438409       -75.6200167790 -8.63E-04
   188 Broy./Diag. 0.10E+00    5.6     0.01314145       -75.5934239494  2.66E-02
   189 Broy./Diag. 0.10E+00    5.6     0.00931563       -75.5959016521 -2.48E-03
   190 Broy./Diag. 0.10E+00    5.5     0.05664143       -75.6280022337 -3.21E-02
   191 Broy./Diag. 0.10E+00    5.5     0.07420220       -75.6267296814  1.27E-03
   192 Broy./Diag. 0.10E+00    5.4     0.06144255       -75.6074973675  1.92E-02
   193 Broy./Diag. 0.10E+00    5.5     0.03129791       -75.5948419097  1.27E-02
   194 Broy./Diag. 0.10E+00    5.6     0.02350737       -75.6040747487 -9.23E-03
   195 Broy./Diag. 0.10E+00    5.4     0.01841333       -75.6260742340 -2.20E-02
   196 Broy./Diag. 0.10E+00    5.9     0.00958143       -75.6445230905 -1.84E-02
   197 Broy./Diag. 0.10E+00    5.9     0.01082337       -75.6467856616 -2.26E-03
   198 Broy./Diag. 0.10E+00    5.7     0.00823772       -75.6456164851  1.17E-03
   199 Broy./Diag. 0.10E+00    5.7     0.00324373       -75.6456982317 -8.17E-05
   200 Broy./Diag. 0.10E+00    5.7     0.00382792       -75.6464516983 -7.53E-04
   201 Broy./Diag. 0.10E+00    5.6     0.00838716       -75.6485434991 -2.09E-03
   202 Broy./Diag. 0.10E+00    5.5     0.01100294       -75.6472215550  1.32E-03
   203 Broy./Diag. 0.10E+00    5.5     0.01292912       -75.6455380644  1.68E-03
   204 Broy./Diag. 0.10E+00    5.5     0.01670646       -75.6444674464  1.07E-03
   205 Broy./Diag. 0.10E+00    5.5     0.02028336       -75.6422168271  2.25E-03
   206 Broy./Diag. 0.10E+00    5.5     0.02415042       -75.6393867570  2.83E-03
   207 Broy./Diag. 0.10E+00    5.4     0.02829419       -75.6342470411  5.14E-03
   208 Broy./Diag. 0.10E+00    5.4     0.03179547       -75.6249910334  9.26E-03
   209 Broy./Diag. 0.10E+00    5.4     0.04686533       -75.6129110070  1.21E-02
   210 Broy./Diag. 0.10E+00    5.3     0.05630505       -75.5910404431  2.19E-02
   211 Broy./Diag. 0.10E+00    5.4     0.06554419       -75.5646532299  2.64E-02
   212 Broy./Diag. 0.10E+00    5.5     0.07313328       -75.5310022521  3.37E-02
   213 Broy./Diag. 0.10E+00    5.7     0.07705888       -75.4956940769  3.53E-02
   214 Broy./Diag. 0.10E+00    5.7     0.07530409       -75.4580016288  3.77E-02
   215 Broy./Diag. 0.10E+00    5.8     0.06784939       -75.4240676116  3.39E-02
   216 Broy./Diag. 0.10E+00    5.7     0.05483171       -75.3973099467  2.68E-02
   217 Broy./Diag. 0.10E+00    5.8     0.03858282       -75.3768163757  2.05E-02
   218 Broy./Diag. 0.10E+00    5.5     0.02524571       -75.3700665820  6.75E-03
   219 Broy./Diag. 0.10E+00    5.5     0.02437314       -75.3501121676  2.00E-02
   220 Broy./Diag. 0.10E+00    5.5     0.05022639       -75.3562533764 -6.14E-03
   221 Broy./Diag. 0.10E+00    5.5     0.04100786       -75.3598517748 -3.60E-03
   222 Broy./Diag. 0.10E+00    5.5     0.03315575       -75.3698023307 -9.95E-03
   223 Broy./Diag. 0.10E+00    5.5     0.07816473       -75.3415591116  2.82E-02
   224 Broy./Diag. 0.10E+00    5.4     0.10212786       -75.2575488319  8.40E-02
   225 Broy./Diag. 0.10E+00    5.4     0.06945550       -75.2322710845  2.53E-02
   226 Broy./Diag. 0.10E+00    5.3     0.05307086       -75.2508986521 -1.86E-02
   227 Broy./Diag. 0.10E+00    5.3     0.07907770       -75.5997072386 -3.49E-01
   228 Broy./Diag. 0.10E+00    5.4     0.16069091       -75.8685540550 -2.69E-01
   229 Broy./Diag. 0.10E+00    5.6     0.20312034       -75.8375383599  3.10E-02
   230 Broy./Diag. 0.10E+00    5.6     0.10383374       -75.6718150167  1.66E-01
   231 Broy./Diag. 0.10E+00    5.7     0.05408066       -75.7588458042 -8.70E-02
   232 Broy./Diag. 0.10E+00    5.6     0.06588114       -75.7599598385 -1.11E-03
   233 Broy./Diag. 0.10E+00    5.6     0.09402372       -75.8934080435 -1.33E-01
   234 Broy./Diag. 0.10E+00    5.6     0.11456312       -75.9250021734 -3.16E-02
   235 Broy./Diag. 0.10E+00    5.5     0.09141193       -75.6436182097  2.81E-01
   236 Broy./Diag. 0.10E+00    5.6     0.16995407       -75.4352658113  2.08E-01
   237 Broy./Diag. 0.10E+00    5.4     0.15161455       -75.3747913142  6.05E-02
   238 Broy./Diag. 0.10E+00    5.4     0.11653207       -75.3080704752  6.67E-02
   239 Broy./Diag. 0.10E+00    5.4     0.05546430       -75.3242591988 -1.62E-02
   240 Broy./Diag. 0.10E+00    5.3     0.02518099       -75.3679123391 -4.37E-02
   241 Broy./Diag. 0.10E+00    5.4     0.02656292       -75.4709486617 -1.03E-01
   242 Broy./Diag. 0.10E+00    5.4     0.02423804       -75.4225545944  4.84E-02
   243 Broy./Diag. 0.10E+00    5.6     0.03192242       -75.4344062986 -1.19E-02
   244 Broy./Diag. 0.10E+00    5.7     0.03892263       -75.4499347092 -1.55E-02
   245 Broy./Diag. 0.10E+00    5.8     0.05096645       -75.4740052739 -2.41E-02
   246 Broy./Diag. 0.10E+00    5.8     0.11230895       -75.6223903641 -1.48E-01
   247 Broy./Diag. 0.10E+00    5.6     0.21073807       -75.6934443180 -7.11E-02
   248 Broy./Diag. 0.10E+00    5.6     0.17410386       -75.7123919001 -1.89E-02
   249 Broy./Diag. 0.10E+00    5.6     0.07432586       -75.6684004135  4.40E-02
   250 Broy./Diag. 0.10E+00    5.5     0.06140561       -75.5800604791  8.83E-02
   251 Broy./Diag. 0.10E+00    5.5     0.05354639       -75.6177558574 -3.77E-02
   252 Broy./Diag. 0.10E+00    5.4     0.03513347       -75.6437229138 -2.60E-02
   253 Broy./Diag. 0.10E+00    5.4     0.04848163       -75.6493381562 -5.62E-03
   254 Broy./Diag. 0.10E+00    5.3     0.03161348       -75.6674412889 -1.81E-02
   255 Broy./Diag. 0.10E+00    5.4     0.04887732       -75.6787606552 -1.13E-02
   256 Broy./Diag. 0.10E+00    5.3     0.06179059       -75.6787087797  5.19E-05
   257 Broy./Diag. 0.10E+00    5.3     0.05887542       -75.6617873596  1.69E-02
   258 Broy./Diag. 0.10E+00    5.3     0.05208701       -75.6703293950 -8.54E-03
   259 Broy./Diag. 0.10E+00    5.4     0.06143852       -75.6270203543  4.33E-02
   260 Broy./Diag. 0.10E+00    5.8     0.06377440       -75.5957935482  3.12E-02
   261 Broy./Diag. 0.10E+00    5.8     0.06314067       -75.5640429679  3.18E-02
   262 Broy./Diag. 0.10E+00    5.8     0.05459503       -75.5347600361  2.93E-02
   263 Broy./Diag. 0.10E+00    5.6     0.03939333       -75.5330752778  1.68E-03
   264 Broy./Diag. 0.10E+00    5.7     0.02118822       -75.5546918549 -2.16E-02
   265 Broy./Diag. 0.10E+00    5.5     0.02274191       -75.5741899283 -1.95E-02
   266 Broy./Diag. 0.10E+00    5.7     0.03895865       -75.5657983640  8.39E-03
   267 Broy./Diag. 0.10E+00    5.5     0.06177898       -75.5803934188 -1.46E-02
   268 Broy./Diag. 0.10E+00    5.5     0.07554479       -75.5811164256 -7.23E-04
   269 Broy./Diag. 0.10E+00    5.4     0.16030876       -75.6294666967 -4.84E-02
   270 Broy./Diag. 0.10E+00    5.4     0.13247814       -75.7006787954 -7.12E-02
   271 Broy./Diag. 0.10E+00    5.5     0.08712724       -75.7342624573 -3.36E-02
   272 Broy./Diag. 0.10E+00    5.3     0.08771930       -75.7479570477 -1.37E-02
   273 Broy./Diag. 0.10E+00    5.4     0.06033324       -75.7629966814 -1.50E-02
   274 Broy./Diag. 0.10E+00    5.6     0.04069937       -75.7629305425  6.61E-05
   275 Broy./Diag. 0.10E+00    5.9     0.03733397       -75.7560471949  6.88E-03
   276 Broy./Diag. 0.10E+00    5.7     0.02064239       -75.7552945838  7.53E-04
   277 Broy./Diag. 0.10E+00    5.8     0.01552472       -75.7320607554  2.32E-02
   278 Broy./Diag. 0.10E+00    5.5     0.01047328       -75.7358934499 -3.83E-03
   279 Broy./Diag. 0.10E+00    5.5     0.07077000       -75.7184782851  1.74E-02
   280 Broy./Diag. 0.10E+00    5.5     0.13673000       -75.6793399934  3.91E-02
   281 Broy./Diag. 0.10E+00    5.5     0.08800609       -75.6629543703  1.64E-02
   282 Broy./Diag. 0.10E+00    5.5     0.08086244       -75.6725591324 -9.60E-03
   283 Broy./Diag. 0.10E+00    5.5     0.06519069       -75.6769791257 -4.42E-03
   284 Broy./Diag. 0.10E+00    5.4     0.06085846       -75.6727609716  4.22E-03
   285 Broy./Diag. 0.10E+00    5.4     0.06090110       -75.6539022773  1.89E-02
   286 Broy./Diag. 0.10E+00    5.4     0.04705033       -75.6311503511  2.28E-02
   287 Broy./Diag. 0.10E+00    5.3     0.03072079       -75.6211037764  1.00E-02
   288 Broy./Diag. 0.10E+00    5.4     0.02643840       -75.6174264002  3.68E-03
   289 Broy./Diag. 0.10E+00    5.7     0.02549651       -75.6192135915 -1.79E-03
   290 Broy./Diag. 0.10E+00    5.8     0.02540131       -75.6110783861  8.14E-03
   291 Broy./Diag. 0.10E+00    5.8     0.02840499       -75.6155658714 -4.49E-03
   292 Broy./Diag. 0.10E+00    5.6     0.06213320       -75.6376046687 -2.20E-02
   293 Broy./Diag. 0.10E+00    5.7     0.14415944       -75.6876968120 -5.01E-02
   294 Broy./Diag. 0.10E+00    5.6     0.09429285       -75.7032749178 -1.56E-02
   295 Broy./Diag. 0.10E+00    5.5     0.03865831       -75.6706617254  3.26E-02
   296 Broy./Diag. 0.10E+00    5.5     0.04711299       -75.6559519463  1.47E-02
   297 Broy./Diag. 0.10E+00    5.5     0.05700251       -75.6292153548  2.67E-02
   298 Broy./Diag. 0.10E+00    5.4     0.06775492       -75.6222796320  6.94E-03
   299 Broy./Diag. 0.10E+00    5.3     0.04738476       -75.6063186487  1.60E-02
   300 Broy./Diag. 0.10E+00    5.3     0.02104987       -75.6107436093 -4.42E-03
   301 Broy./Diag. 0.10E+00    5.6     0.02084093       -75.6119091707 -1.17E-03
   302 Broy./Diag. 0.10E+00    5.8     0.02092886       -75.6168345375 -4.93E-03
   303 Broy./Diag. 0.10E+00    5.8     0.01706016       -75.6228692346 -6.03E-03
   304 Broy./Diag. 0.10E+00    5.9     0.01287945       -75.6260267817 -3.16E-03
   305 Broy./Diag. 0.10E+00    5.6     0.03639288       -75.6284315571 -2.40E-03
   306 Broy./Diag. 0.10E+00    5.6     0.01838571       -75.6301412774 -1.71E-03
   307 Broy./Diag. 0.10E+00    5.6     0.02976006       -75.6366245504 -6.48E-03
   308 Broy./Diag. 0.10E+00    5.5     0.04357210       -75.6282780252  8.35E-03
   309 Broy./Diag. 0.10E+00    5.5     0.08273256       -75.6366558753 -8.38E-03
   310 Broy./Diag. 0.10E+00    5.4     0.05227274       -75.6484060147 -1.18E-02
   311 Broy./Diag. 0.10E+00    5.4     0.02983456       -75.6613452431 -1.29E-02
   312 Broy./Diag. 0.10E+00    5.4     0.01787079       -75.6707376152 -9.39E-03
   313 Broy./Diag. 0.10E+00    5.4     0.01054399       -75.6734589660 -2.72E-03
   314 Broy./Diag. 0.10E+00    5.5     0.09384511       -75.6795906141 -6.13E-03
   315 Broy./Diag. 0.10E+00    5.4     0.06748729       -75.6812996628 -1.71E-03
   316 Broy./Diag. 0.10E+00    5.3     0.04218491       -75.6868024104 -5.50E-03
   317 Broy./Diag. 0.10E+00    5.4     0.04776217       -75.6609050379  2.59E-02
   318 Broy./Diag. 0.10E+00    5.7     0.03727642       -75.6572182511  3.69E-03
   319 Broy./Diag. 0.10E+00    5.8     0.04943288       -75.6588324875 -1.61E-03
   320 Broy./Diag. 0.10E+00    5.8     0.04913279       -75.6528340675  6.00E-03
   321 Broy./Diag. 0.10E+00    5.6     0.08738751       -75.6496216400  3.21E-03
   322 Broy./Diag. 0.10E+00    5.6     0.10105793       -75.6468033987  2.82E-03
[...]
   418 Broy./Diag. 0.10E+00    5.7     0.17128871       -75.5086546165 -5.96E-02
   419 Broy./Diag. 0.10E+00    5.6     0.04591170       -75.4626781911  4.60E-02
   420 Broy./Diag. 0.10E+00    5.6     0.03664612       -75.5075362292 -4.49E-02
   421 Broy./Diag. 0.10E+00    5.6     0.10646495       -75.5971291816 -8.96E-02
   422 Broy./Diag. 0.10E+00    5.6     0.09085076       -75.6580378696 -6.09E-02
   423 Broy./Diag. 0.10E+00    5.5     0.05079184       -75.6531782803  4.86E-03
   424 Broy./Diag. 0.10E+00    5.4     0.02898016       -75.6598125993 -6.63E-03
   425 Broy./Diag. 0.10E+00    5.5     0.02691393       -75.6671642017 -7.35E-03
   426 Broy./Diag. 0.10E+00    5.3     0.01983335       -75.6629029877  4.26E-03
   427 Broy./Diag. 0.10E+00    5.4     0.03088584       -75.6544422919  8.46E-03
   428 Broy./Diag. 0.10E+00    5.7     0.02095266       -75.6558860081 -1.44E-03
   429 Broy./Diag. 0.10E+00    5.9     0.05714380       -75.6510052845  4.88E-03
   430 Broy./Diag. 0.10E+00    5.7     0.05181078       -75.6466627060  4.34E-03
   431 Broy./Diag. 0.10E+00    5.8     0.07210160       -75.6236286840  2.30E-02
   432 Broy./Diag. 0.10E+00    5.6     0.03616053       -75.6292189111 -5.59E-03
   433 Broy./Diag. 0.10E+00    5.5     0.06080721       -75.6077772596  2.14E-02
   434 Broy./Diag. 0.10E+00    5.6     0.05420593       -75.5923496424  1.54E-02
   435 Broy./Diag. 0.10E+00    5.7     0.04029945       -75.5908693650  1.48E-03
   436 Broy./Diag. 0.10E+00    5.4     0.04459460       -75.5723594265  1.85E-02
   437 Broy./Diag. 0.10E+00    5.5     0.05633147       -75.5466676067  2.57E-02
   438 Broy./Diag. 0.10E+00    5.6     0.05016444       -75.5174690421  2.92E-02
   439 Broy./Diag. 0.10E+00    5.5     0.10156324       -75.4959882348  2.15E-02
   440 Broy./Diag. 0.10E+00    5.4     0.16709858       -75.4937674303  2.22E-03
   441 Broy./Diag. 0.10E+00    5.4     0.12640798       -75.4631758159  3.06E-02
   442 Broy./Diag. 0.10E+00    5.4     0.09529844       -75.4203829059  4.28E-02
   443 Broy./Diag. 0.10E+00    5.8     0.07708883       -75.4013443785  1.90E-02
   444 Broy./Diag. 0.10E+00    5.6     0.02972965       -75.3966412504  4.70E-03
   445 Broy./Diag. 0.10E+00    5.8     0.10751524       -75.4179142186 -2.13E-02
   446 Broy./Diag. 0.10E+00    5.8     0.22642376       -75.4187632811 -8.49E-04
   447 Broy./Diag. 0.10E+00    5.6     0.16326749       -75.4359226547 -1.72E-02
   448 Broy./Diag. 0.10E+00    5.5     0.10544125       -75.4871873276 -5.13E-02
   449 Broy./Diag. 0.10E+00    5.5     0.07846945       -75.5099293142 -2.27E-02
   450 Broy./Diag. 0.10E+00    5.4     0.26729270       -75.4490890342  6.08E-02
   451 Broy./Diag. 0.10E+00    5.5     0.26495429       -75.4128460059  3.62E-02
   452 Broy./Diag. 0.10E+00    5.5     0.10905708       -75.4530759983 -4.02E-02
   453 Broy./Diag. 0.10E+00    5.7     0.09499627       -75.5099552237 -5.69E-02
   454 Broy./Diag. 0.10E+00    5.7     0.05839274       -75.5258163979 -1.59E-02
   455 Broy./Diag. 0.10E+00    5.7     0.02240298       -75.5187534209  7.06E-03
   456 Broy./Diag. 0.10E+00    5.7     0.09905944       -75.5119657135  6.79E-03
   457 Broy./Diag. 0.10E+00    5.6     0.06394766       -75.5607275728 -4.88E-02
   458 Broy./Diag. 0.10E+00    5.6     0.05847257       -75.5922773121 -3.15E-02
   459 Broy./Diag. 0.10E+00    5.5     0.06685956       -75.5964206537 -4.14E-03
   460 Broy./Diag. 0.10E+00    5.4     0.04882108       -75.5896924214  6.73E-03
   461 Broy./Diag. 0.10E+00    5.5     0.07163882       -75.5793509994  1.03E-02
   462 Broy./Diag. 0.10E+00    5.4     0.06616131       -75.5880128017 -8.66E-03
   463 Broy./Diag. 0.10E+00    5.4     0.08195246       -75.5900215414 -2.01E-03
   464 Broy./Diag. 0.10E+00    5.4     0.14721646       -75.5962374466 -6.22E-03
   465 Broy./Diag. 0.10E+00    5.5     0.09790751       -75.5824384990  1.38E-02
   466 Broy./Diag. 0.10E+00    5.5     0.05474279       -75.5902911607 -7.85E-03
   467 Broy./Diag. 0.10E+00    5.5     0.03237031       -75.6008571658 -1.06E-02
   468 Broy./Diag. 0.10E+00    5.7     0.07044451       -75.6128457276 -1.20E-02
   469 Broy./Diag. 0.10E+00    5.8     0.13443881       -75.6098391555  3.01E-03
   470 Broy./Diag. 0.10E+00    5.8     0.08161741       -75.6156496659 -5.81E-03
   471 Broy./Diag. 0.10E+00    5.7     0.17410373       -75.5994963739  1.62E-02
   472 Broy./Diag. 0.10E+00    5.7     0.09734497       -75.6001748537 -6.78E-04
   473 Broy./Diag. 0.10E+00    5.5     0.03998217       -75.6033316199 -3.16E-03
   474 Broy./Diag. 0.10E+00    5.5     0.02417222       -75.6144907809 -1.12E-02
   475 Broy./Diag. 0.10E+00    5.5     0.01112452       -75.6249898971 -1.05E-02
   476 Broy./Diag. 0.10E+00    5.4     0.08790322       -75.6468436555 -2.19E-02
   477 Broy./Diag. 0.10E+00    5.4     0.07946947       -75.6551616936 -8.32E-03
   478 Broy./Diag. 0.10E+00    5.5     0.06791138       -75.6526603987  2.50E-03
   479 Broy./Diag. 0.10E+00    5.5     0.05292047       -75.6488462874  3.81E-03
   480 Broy./Diag. 0.10E+00    5.5     0.04393539       -75.6491356420 -2.89E-04
   481 Broy./Diag. 0.10E+00    5.6     0.05566807       -75.6536370120 -4.50E-03
   482 Broy./Diag. 0.10E+00    5.8     0.04949581       -75.6539082836 -2.71E-04
   483 Broy./Diag. 0.10E+00    5.8     0.01506515       -75.6512915626  2.62E-03
   484 Broy./Diag. 0.10E+00    5.7     0.01274082       -75.6544706159 -3.18E-03
   485 Broy./Diag. 0.10E+00    5.7     0.01288148       -75.6570366825 -2.57E-03
   486 Broy./Diag. 0.10E+00    5.6     0.01769036       -75.6544883556  2.55E-03
   487 Broy./Diag. 0.10E+00    5.6     0.03030129       -75.6499757531  4.51E-03
   488 Broy./Diag. 0.10E+00    5.5     0.10869510       -75.6450224559  4.95E-03
   489 Broy./Diag. 0.10E+00    5.4     0.14713898       -75.6429027085  2.12E-03
   490 Broy./Diag. 0.10E+00    5.5     0.10390070       -75.6349829332  7.92E-03
   491 Broy./Diag. 0.10E+00    5.4     0.10540847       -75.6150247752  2.00E-02
   492 Broy./Diag. 0.10E+00    5.6     0.11712091       -75.5876262396  2.74E-02
   493 Broy./Diag. 0.10E+00    5.5     0.08900659       -75.5625502730  2.51E-02
   494 Broy./Diag. 0.10E+00    5.5     0.05324052       -75.5579905671  4.56E-03
   495 Broy./Diag. 0.10E+00    5.5     0.01671137       -75.5710708630 -1.31E-02
   496 Broy./Diag. 0.10E+00    5.4     0.03330093       -75.5958923083 -2.48E-02
   497 Broy./Diag. 0.10E+00    5.4     0.02647791       -75.6206239616 -2.47E-02
   498 Broy./Diag. 0.10E+00    5.6     0.04364053       -75.6218089729 -1.19E-03
   499 Broy./Diag. 0.10E+00    5.7     0.08072266       -75.6564741090 -3.47E-02
   500 Broy./Diag. 0.10E+00    5.7     0.13580058       -75.7110354867 -5.46E-02

  Leaving inner SCF loop after reaching   500 steps.


  Electronic density on regular grids:         -8.1631250983        3.8368749017
  Core density on regular grids:               12.0000000000        0.0000000000
  Hard and soft densities (Lebedev):          -32.6175370810      -28.7726401945
  Total Rho_soft + Rho1_hard - Rho1_soft      -12.0080219848
  Total charge density (r-space):              -0.0080219848
  Total Rho_soft + Rho0_soft (g-space):        -0.0080220804

  Overlap energy of the core charge distribution:               0.00003125550742
  Self energy of the core charge distribution:                -58.22549323810243
  Core Hamiltonian energy:                                    -15.17669682180961
  Hartree energy:                                              16.93591281052451
  Exchange-correlation energy:                                 -2.56690231555247
  Hartree-Fock Exchange energy:                                -2.53255381714709

  GAPW| Exc from hard and soft atomic rho1:                    -5.44881444572670
  GAPW| local Eh = 1 center integrals:                         -8.69651891440938

  Total energy:                                               -75.71103548671576

 *******************************************************************************
 *   ___                                                                       *
 *  /   \                                                                      *
 * [ABORT]                                                                     *
 *  \___/     SCF run NOT converged. To continue the calculation regardless,   *
 *    |             please set the keyword IGNORE_CONVERGENCE_FAILURE.         *
 *  O/|                                                                        *
 * /| |                                                                        *
 * / \                                                            qs_scf.F:611 *
 *******************************************************************************


 ===== Routine Calling Stack ===== 

            3 scf_env_do_scf
            2 qs_energies
            1 CP2K

 *******************************************************************************
 *   ___                                                                       *
 *  /   \                                                                      *
 * [ABORT]                                                                     *
 *  \___/     SCF run NOT converged. To continue the calculation regardless,   *
 *    |             please set the keyword IGNORE_CONVERGENCE_FAILURE.         *
 *  O/|                                                                        *
 * /| |                                                                        *
 * / \                                                            qs_scf.F:611 *
 *******************************************************************************


 ===== Routine Calling Stack ===== 

            3 scf_env_do_scf
            2 qs_energies
            1 CP2K

 *******************************************************************************
 *   ___                                                                       *
 *  /   \                                                                      *
 * [ABORT]                                                                     *
 *  \___/     SCF run NOT converged. To continue the calculation regardless,   *
 *    |             please set the keyword IGNORE_CONVERGENCE_FAILURE.         *
 *  O/|                                                                        *
 * /| |                                                                        *
 * / \                                                            qs_scf.F:611 *
 *******************************************************************************


 ===== Routine Calling Stack ===== 

            3 scf_env_do_scf
            2 qs_energies
            1 CP2K

 *******************************************************************************
 *   ___                                                                       *
 *  /   \                                                                      *
 * [ABORT]                                                                     *
 *  \___/     SCF run NOT converged. To continue the calculation regardless,   *
 *    |             please set the keyword IGNORE_CONVERGENCE_FAILURE.         *
 *  O/|                                                                        *
 * /| |                                                                        *
 * / \                                                            qs_scf.F:611 *
 *******************************************************************************


 ===== Routine Calling Stack ===== 

            3 scf_env_do_scf
            2 qs_energies
            1 CP2K

 *******************************************************************************
 *   ___                                                                       *
 *  /   \                                                                      *
 * [ABORT]                                                                     *
 *  \___/     SCF run NOT converged. To continue the calculation regardless,   *
 *    |             please set the keyword IGNORE_CONVERGENCE_FAILURE.         *
 *  O/|                                                                        *
 * /| |                                                                        *
 * / \                                                            qs_scf.F:611 *
 *******************************************************************************


 ===== Routine Calling Stack ===== 

            3 scf_env_do_scf
            2 qs_energies
            1 CP2K

 *******************************************************************************
 *   ___                                                                       *
 *  /   \                                                                      *
 * [ABORT]                                                                     *
 *  \___/     SCF run NOT converged. To continue the calculation regardless,   *
 *    |             please set the keyword IGNORE_CONVERGENCE_FAILURE.         *
 *  O/|                                                                        *
 * /| |                                                                        *
 * / \                                                            qs_scf.F:611 *
 *******************************************************************************


 ===== Routine Calling Stack ===== 

            3 scf_env_do_scf
            2 qs_energies
            1 CP2K

 *******************************************************************************
 *   ___                                                                       *
 *  /   \                                                                      *
 * [ABORT]                                                                     *
 *  \___/     SCF run NOT converged. To continue the calculation regardless,   *
 *    |             please set the keyword IGNORE_CONVERGENCE_FAILURE.         *
 *  O/|                                                                        *
 * /| |                                                                        *
 * / \                                                            qs_scf.F:611 *
 *******************************************************************************


 ===== Routine Calling Stack ===== 

            3 scf_env_do_scf
            2 qs_energies
            1 CP2K

 *******************************************************************************
 *   ___                                                                       *
 *  /   \                                                                      *
 * [ABORT]                                                                     *
 *  \___/     SCF run NOT converged. To continue the calculation regardless,   *
 *    |             please set the keyword IGNORE_CONVERGENCE_FAILURE.         *
 *  O/|                                                                        *
 * /| |                                                                        *
 * / \                                                            qs_scf.F:611 *
 *******************************************************************************


 ===== Routine Calling Stack ===== 

            3 scf_env_do_scf
            2 qs_energies
            1 CP2K

 *******************************************************************************
 *   ___                                                                       *
 *  /   \                                                                      *
 * [ABORT]                                                                     *
 *  \___/     SCF run NOT converged. To continue the calculation regardless,   *
 *    |             please set the keyword IGNORE_CONVERGENCE_FAILURE.         *
 *  O/|                                                                        *
 * /| |                                                                        *
 * / \                                                            qs_scf.F:611 *
 *******************************************************************************


 ===== Routine Calling Stack ===== 

            3 scf_env_do_scf
            2 qs_energies
            1 CP2K

 *******************************************************************************
 *   ___                                                                       *
 *  /   \                                                                      *
 * [ABORT]                                                                     *
 *  \___/     SCF run NOT converged. To continue the calculation regardless,   *
 *    |             please set the keyword IGNORE_CONVERGENCE_FAILURE.         *
 *  O/|                                                                        *
 * /| |                                                                        *
 * / \                                                            qs_scf.F:611 *
 *******************************************************************************


 ===== Routine Calling Stack ===== 

            3 scf_env_do_scf
            2 qs_energies
            1 CP2K

 *******************************************************************************
 *   ___                                                                       *
 *  /   \                                                                      *
 * [ABORT]                                                                     *
 *  \___/     SCF run NOT converged. To continue the calculation regardless,   *
 *    |             please set the keyword IGNORE_CONVERGENCE_FAILURE.         *
 *  O/|                                                                        *
 * /| |                                                                        *
 * / \                                                            qs_scf.F:611 *
 *******************************************************************************


 ===== Routine Calling Stack ===== 

            3 scf_env_do_scf
            2 qs_energies
            1 CP2K

 *******************************************************************************
 *   ___                                                                       *
 *  /   \                                                                      *
 * [ABORT]                                                                     *
 *  \___/     SCF run NOT converged. To continue the calculation regardless,   *
 *    |             please set the keyword IGNORE_CONVERGENCE_FAILURE.         *
 *  O/|                                                                        *
 * /| |                                                                        *
 * / \                                                            qs_scf.F:611 *
 *******************************************************************************


 ===== Routine Calling Stack ===== 

            3 scf_env_do_scf
            2 qs_energies
            1 CP2K

 *******************************************************************************
 *   ___                                                                       *
 *  /   \                                                                      *
 * [ABORT]                                                                     *
 *  \___/     SCF run NOT converged. To continue the calculation regardless,   *
 *    |             please set the keyword IGNORE_CONVERGENCE_FAILURE.         *
 *  O/|                                                                        *
 * /| |                                                                        *
 * / \                                                            qs_scf.F:611 *
 *******************************************************************************


 ===== Routine Calling Stack ===== 

            3 scf_env_do_scf
            2 qs_energies
            1 CP2K
