 DBCSR| CPU Multiplication driver                                           BLAS (U)
 DBCSR| Multrec recursion limit                                              512 (U)
 DBCSR| Multiplication stack size                                           1000 (D)
 DBCSR| Maximum elements for images                                    UNLIMITED (U)
 DBCSR| Multiplicative factor virtual images                                   1 (U)
 DBCSR| Use multiplication densification                                       T (D)
 DBCSR| Multiplication size stacks                                             3 (U)
 DBCSR| Use memory pool for CPU allocation                                     F (U)
 DBCSR| Number of 3D layers                                               SINGLE (U)
 DBCSR| Use MPI memory allocation                                              F (U)
 DBCSR| Use RMA algorithm                                                      F (U)
 DBCSR| Use Communication thread                                               T (U)
 DBCSR| Communication thread load                                             75 (D)
 DBCSR| MPI: My process id                                                     0
 DBCSR| MPI: Number of processes                                              24
 DBCSR| OMP: Current number of threads                                         4
 DBCSR| OMP: Max number of threads                                             4
 DBCSR| Split modifier for TAS multiplication algorithm                  1.0E+00 (U)


  **** **** ******  **  PROGRAM STARTED AT               2025-02-28 02:02:43.617
 ***** ** ***  *** **   PROGRAM STARTED ON                          i01r11c06s04
 **    ****   ******    PROGRAM STARTED BY                               di38fab
 ***** **    ** ** **   PROGRAM PROCESS ID                               1322242
  **** **  *******  **  PROGRAM STARTED IN /hppfs/scratch/04/di38fab/05_MOL/W4-1
                                           1+ALK/c2/SZV

 CP2K| version string:                 CP2K version 2025.1 (Development Version)
 CP2K| source code revision number:                                  git:47877ba
 CP2K| cp2kflags: omp libint fftw3 libxc parallel scalapack max_contr=4         
 CP2K| is freely available from                            https://www.cp2k.org/
 CP2K| Program compiled at                          Thu Feb 20 16:00:34 CET 2025
 CP2K| Program compiled on                                               login04
 CP2K| Program compiled for                                        Supermuc-foss
 CP2K| Data directory path          /hppfs/work/pn36zo/di38fab/newcp2k/cp2k/data
 CP2K| Input file name                                                    GW.inp

 GLOBAL| Force Environment number                                              1
 GLOBAL| Basis set file name            /hppfs/scratch/04/di38fab/04_TMD/BASIS_A
 GLOBAL| Potential file name            /hppfs/work/pn36zo/di38fab/cp2k/data/ALL
 GLOBAL| MM Potential file name                                     MM_POTENTIAL
 GLOBAL| Coordinate file name                                      __STD_INPUT__
 GLOBAL| Method name                                                        CP2K
 GLOBAL| Project name                                                       MoS2
 GLOBAL| Run type                                                         ENERGY
 GLOBAL| FFT library                                                       FFTW3
 GLOBAL| Diagonalization library                                       ScaLAPACK
 GLOBAL| DGEMM library                                                      BLAS
 GLOBAL| Orthonormality check for eigenvectors                          DISABLED
 GLOBAL| Matrix multiplication library                                 ScaLAPACK
 GLOBAL| All-to-all communication in single precision                          F
 GLOBAL| FFTs using library dependent lengths                                  F
 GLOBAL| Grid backend                                                       AUTO
 GLOBAL| Global print level                                               MEDIUM
 GLOBAL| MPI I/O enabled                                                       T
 GLOBAL| Total number of message passing processes                            24
 GLOBAL| Number of threads for this process                                    4
 GLOBAL| This output is from process                                           0
 GLOBAL| OpenMP stack size per thread (OMP_STACKSIZE)                    default
 GLOBAL| CPU model name             Intel(R) Xeon(R) Platinum 8174 CPU @ 3.10GHz

 MEMORY| system memory details [Kb]
 MEMORY|                        rank 0           min           max       average
 MEMORY| MemTotal             98436664      98436664      98436664      98436664
 MEMORY| MemFree              84362072      83968192      84362072      84165132
 MEMORY| Buffers                     0             0             0             0
 MEMORY| Cached                2394628       2394628       2403012       2398820
 MEMORY| Slab                  1143776       1143776       1251380       1197578
 MEMORY| SReclaimable           253692        253692        275468        264580
 MEMORY| MemLikelyFree        87010392      86646672      87010392      86828532


 *** Fundamental physical constants (SI units) ***

 *** Literature: B. J. Mohr and B. N. Taylor,
 ***             CODATA recommended values of the fundamental physical
 ***             constants: 2006, Web Version 5.1
 ***             http://physics.nist.gov/constants

 Speed of light in vacuum [m/s]                             2.99792458000000E+08
 Magnetic constant or permeability of vacuum [N/A**2]       1.25663706143592E-06
 Electric constant or permittivity of vacuum [F/m]          8.85418781762039E-12
 Planck constant (h) [J*s]                                  6.62606896000000E-34
 Planck constant (h-bar) [J*s]                              1.05457162825177E-34
 Elementary charge [C]                                      1.60217648700000E-19
 Electron mass [kg]                                         9.10938215000000E-31
 Electron g factor [ ]                                     -2.00231930436220E+00
 Proton mass [kg]                                           1.67262163700000E-27
 Fine-structure constant                                    7.29735253760000E-03
 Rydberg constant [1/m]                                     1.09737315685270E+07
 Avogadro constant [1/mol]                                  6.02214179000000E+23
 Boltzmann constant [J/K]                                   1.38065040000000E-23
 Atomic mass unit [kg]                                      1.66053878200000E-27
 Bohr radius [m]                                            5.29177208590000E-11

 *** Conversion factors ***

 [u] -> [a.u.]                                              1.82288848426455E+03
 [Angstrom] -> [Bohr] = [a.u.]                              1.88972613288564E+00
 [a.u.] = [Bohr] -> [Angstrom]                              5.29177208590000E-01
 [a.u.] -> [s]                                              2.41888432650478E-17
 [a.u.] -> [fs]                                             2.41888432650478E-02
 [a.u.] -> [J]                                              4.35974393937059E-18
 [a.u.] -> [N]                                              8.23872205491840E-08
 [a.u.] -> [K]                                              3.15774647902944E+05
 [a.u.] -> [kJ/mol]                                         2.62549961709828E+03
 [a.u.] -> [kcal/mol]                                       6.27509468713739E+02
 [a.u.] -> [Pa]                                             2.94210107994716E+13
 [a.u.] -> [bar]                                            2.94210107994716E+08
 [a.u.] -> [atm]                                            2.90362800883016E+08
 [a.u.] -> [eV]                                             2.72113838565563E+01
 [a.u.] -> [Hz]                                             6.57968392072181E+15
 [a.u.] -> [1/cm] (wave numbers)                            2.19474631370540E+05
 [a.u./Bohr**2] -> [1/cm]                                   5.14048714338585E+03
 

 CELL_TOP| Volume [angstrom^3]:                                     27000.000000
 CELL_TOP| Vector a [angstrom    30.000     0.000     0.000   |a| =    30.000000
 CELL_TOP| Vector b [angstrom     0.000    30.000     0.000   |b| =    30.000000
 CELL_TOP| Vector c [angstrom     0.000     0.000    30.000   |c| =    30.000000
 CELL_TOP| Angle (b,c), alpha [degree]:                                90.000000
 CELL_TOP| Angle (a,c), beta  [degree]:                                90.000000
 CELL_TOP| Angle (a,b), gamma [degree]:                                90.000000
 CELL_TOP| Numerically orthorhombic:                                         YES
 CELL_TOP| Periodicity                                                      NONE

 GENERATE|  Preliminary Number of Bonds generated:                             0
 GENERATE|  Achieved consistency in connectivity generation.

 CELL| Volume [angstrom^3]:                                         27000.000000
 CELL| Vector a [angstrom]:      30.000     0.000     0.000   |a| =    30.000000
 CELL| Vector b [angstrom]:       0.000    30.000     0.000   |b| =    30.000000
 CELL| Vector c [angstrom]:       0.000     0.000    30.000   |c| =    30.000000
 CELL| Angle (b,c), alpha [degree]:                                    90.000000
 CELL| Angle (a,c), beta  [degree]:                                    90.000000
 CELL| Angle (a,b), gamma [degree]:                                    90.000000
 CELL| Numerically orthorhombic:                                             YES
 CELL| Periodicity                                                          NONE

 CELL_REF| Volume [angstrom^3]:                                     27000.000000
 CELL_REF| Vector a [angstrom    30.000     0.000     0.000   |a| =    30.000000
 CELL_REF| Vector b [angstrom     0.000    30.000     0.000   |b| =    30.000000
 CELL_REF| Vector c [angstrom     0.000     0.000    30.000   |c| =    30.000000
 CELL_REF| Angle (b,c), alpha [degree]:                                90.000000
 CELL_REF| Angle (a,c), beta  [degree]:                                90.000000
 CELL_REF| Angle (a,b), gamma [degree]:                                90.000000
 CELL_REF| Numerically orthorhombic:                                         YES
 CELL_REF| Periodicity                                                      NONE

 *******************************************************************************
 *******************************************************************************
 **                                                                           **
 **     #####                         ##              ##                      **
 **    ##   ##            ##          ##              ##                      **
 **   ##     ##                       ##            ######                    **
 **   ##     ##  ##   ##  ##   #####  ##  ##   ####   ##    #####    #####    **
 **   ##     ##  ##   ##  ##  ##      ## ##   ##      ##   ##   ##  ##   ##   **
 **   ##  ## ##  ##   ##  ##  ##      ####     ###    ##   ######   ######    **
 **    ##  ###   ##   ##  ##  ##      ## ##      ##   ##   ##       ##        **
 **     #######   #####   ##   #####  ##  ##  ####    ##    #####   ##        **
 **           ##                                                    ##        **
 **                                                                           **
 **                                                ... make the atoms dance   **
 **                                                                           **
 **            Copyright (C) by CP2K developers group (2000-2025)             **
 **                      J. Chem. Phys. 152, 194103 (2020)                    **
 **                                                                           **
 *******************************************************************************

 DFT| Spin restricted Kohn-Sham (RKS) calculation                            RKS
 DFT| Multiplicity                                                             1
 DFT| Number of spin states                                                    1
 DFT| Charge                                                                   0
 DFT| Self-interaction correction (SIC)                                       NO
 DFT| Cutoffs: density                                              1.000000E-10
 DFT|          gradient                                             1.000000E-10
 DFT|          tau                                                  1.000000E-10
 DFT|          cutoff_smoothing_range                               0.000000E+00
 DFT| XC density smoothing                                                  NONE
 DFT| XC derivatives                                                          PW

 FUNCTIONAL| PBE:
 FUNCTIONAL| J.P.Perdew, K.Burke, M.Ernzerhof, Phys. Rev. Letter, vol. 77, n 18,
 FUNCTIONAL|  pp. 3865-3868, (1996)sx=0.750sc=1.000{spin unpolarized}           


 QS| Method:                                                                GAPW
 QS| Density plane wave grid type                        NON-SPHERICAL FULLSPACE
 QS| Number of grid levels:                                                    4
 QS| Density cutoff [a.u.]:                                                250.0
 QS| Multi grid cutoff [a.u.]: 1) grid level                               250.0
 QS|                           2) grid level                                83.3
 QS|                           3) grid level                                27.8
 QS|                           4) grid level                                 9.3
 QS| Grid level progression factor:                                          3.0
 QS| Relative density cutoff [a.u.]:                                        50.0
 QS| Interaction thresholds: eps_pgf_orb:                                1.0E-12
 QS|                         eps_filter_matrix:                          0.0E+00
 QS|                         eps_core_charge:                            1.0E-14
 QS|                         eps_rho_gspace:                             1.0E-12
 QS|                         eps_rho_rspace:                             1.0E-12
 QS|                         eps_gvg_rspace:                             1.0E-06
 QS|                         eps_ppl:                                    1.0E-02
 QS|                         eps_ppnl:                                   1.0E-08
 QS| GAPW|      One center basis from orbital basis primitives
 QS| GAPW|                   eps_fit:                                    1.0E-04
 QS| GAPW|                   eps_iso:                                    1.0E-12
 QS| GAPW|                   eps_svd:                                    1.0E-08
 QS| GAPW|                   eps_cpc:                                    1.0E-12
 QS| GAPW|   atom-r-grid: quadrature:                                     GC_LOG
 QS| GAPW|      atom-s-grid:  max l :                                          4
 QS| GAPW|      max_l_rho0 :                                                   2


 ATOMIC KIND INFORMATION

  1. Atomic kind: C                                     Number of atoms:       2

     Orbital Basis Set                                         aug-SZV-MOLOPT-ae

       Number of orbital shell sets:                                           2
       Number of orbital shells:                                               6
       Number of primitive Cartesian functions:                               13
       Number of Cartesian basis functions:                                   15
       Number of spherical basis functions:                                   14
       Norm type:                                                              2

       Normalised Cartesian orbitals:

                        Set   Shell   Orbital            Exponent    Coefficient

                          1       1    2s                0.070000       0.000000
                                                         0.143687       0.040037
                                                         0.313471       0.177689
                                                         0.721783       0.139661
                                                         1.876046      -0.038599
                                                         6.036200      -0.128975
                                                        30.497239      -0.122578

                          1       2    3s                0.070000      -0.142268
                                                         0.143687       0.288819
                                                         0.313471       0.010360
                                                         0.721783       0.175994
                                                         1.876046       0.000000
                                                         6.036200       0.000000
                                                        30.497239       0.000000

                          1       3    3px               0.070000       0.000000
                                                         0.143687       0.012825
                                                         0.313471       0.142381
                                                         0.721783       0.396426
                                                         1.876046       0.544234
                                                         6.036200       0.508157
                                                        30.497239       0.384077
                          1       3    3py               0.070000       0.000000
                                                         0.143687       0.012825
                                                         0.313471       0.142381
                                                         0.721783       0.396426
                                                         1.876046       0.544234
                                                         6.036200       0.508157
                                                        30.497239       0.384077
                          1       3    3pz               0.070000       0.000000
                                                         0.143687       0.012825
                                                         0.313471       0.142381
                                                         0.721783       0.396426
                                                         1.876046       0.544234
                                                         6.036200       0.508157
                                                        30.497239       0.384077

                          1       4    4px               0.070000       0.076505
                                                         0.143687      -0.086104
                                                         0.313471       0.010230
                                                         0.721783       0.129894
                                                         1.876046       0.000000
                                                         6.036200       0.000000
                                                        30.497239       0.000000
                          1       4    4py               0.070000       0.076505
                                                         0.143687      -0.086104
                                                         0.313471       0.010230
                                                         0.721783       0.129894
                                                         1.876046       0.000000
                                                         6.036200       0.000000
                                                        30.497239       0.000000
                          1       4    4pz               0.070000       0.076505
                                                         0.143687      -0.086104
                                                         0.313471       0.010230
                                                         0.721783       0.129894
                                                         1.876046       0.000000
                                                         6.036200       0.000000
                                                        30.497239       0.000000

                          1       5    4dx2              0.070000       0.004316
                                                         0.143687       0.012639
                                                         0.313471       0.125057
                                                         0.721783       0.080411
                                                         1.876046       0.000000
                                                         6.036200       0.000000
                                                        30.497239       0.000000
                          1       5    4dxy              0.070000       0.007476
                                                         0.143687       0.021892
                                                         0.313471       0.216606
                                                         0.721783       0.139276
                                                         1.876046       0.000000
                                                         6.036200       0.000000
                                                        30.497239       0.000000
                          1       5    4dxz              0.070000       0.007476
                                                         0.143687       0.021892
                                                         0.313471       0.216606
                                                         0.721783       0.139276
                                                         1.876046       0.000000
                                                         6.036200       0.000000
                                                        30.497239       0.000000
                          1       5    4dy2              0.070000       0.004316
                                                         0.143687       0.012639
                                                         0.313471       0.125057
                                                         0.721783       0.080411
                                                         1.876046       0.000000
                                                         6.036200       0.000000
                                                        30.497239       0.000000
                          1       5    4dyz              0.070000       0.007476
                                                         0.143687       0.021892
                                                         0.313471       0.216606
                                                         0.721783       0.139276
                                                         1.876046       0.000000
                                                         6.036200       0.000000
                                                        30.497239       0.000000
                          1       5    4dz2              0.070000       0.004316
                                                         0.143687       0.012639
                                                         0.313471       0.125057
                                                         0.721783       0.080411
                                                         1.876046       0.000000
                                                         6.036200       0.000000
                                                        30.497239       0.000000

                          2       1    1s              742.737049       0.929185
                                                       136.180025       1.402437
                                                        38.098264       1.841991
                                                        13.087782       1.817278
                                                         5.082369       1.004768
                                                         2.093200       0.161650

     RI Auxiliary Basis Set             RI_aug-SZV-MOLOPT-ae-SR_N_RI_029_s_p_d_f

       Number of orbital shell sets:                                          11
       Number of orbital shells:                                              11
       Number of primitive Cartesian functions:                               11
       Number of Cartesian basis functions:                                   33
       Number of spherical basis functions:                                   29
       Norm type:                                                              2

       Normalised Cartesian orbitals:

                        Set   Shell   Orbital            Exponent    Coefficient

                          1       1    1s                0.275993       0.271384

                          2       1   10dx2              0.587304       0.648514
                          2       1   10dxy              0.587304       1.123259
                          2       1   10dxz              0.587304       1.123259
                          2       1   10dy2              0.587304       0.648514
                          2       1   10dyz              0.587304       1.123259
                          2       1   10dz2              0.587304       0.648514

                          3       1    6px               0.658795       0.846014
                          3       1    6py               0.658795       0.846014
                          3       1    6pz               0.658795       0.846014

                          4       1   11fx3              1.035652       1.592888
                          4       1   11fx2y             1.035652       3.561805
                          4       1   11fx2z             1.035652       3.561805
                          4       1   11fxy2             1.035652       3.561805
                          4       1   11fxyz             1.035652       6.169228
                          4       1   11fxz2             1.035652       3.561805
                          4       1   11fy3              1.035652       1.592888
                          4       1   11fy2z             1.035652       3.561805
                          4       1   11fyz2             1.035652       3.561805
                          4       1   11fz3              1.035652       1.592888

                          5       1    2s                1.092384       0.761538

                          6       1    7px               2.333195       4.110351
                          6       1    7py               2.333195       4.110351
                          6       1    7pz               2.333195       4.110351

                          7       1    3s                4.901987       2.347952

                          8       1    8px               6.348185      14.363228
                          8       1    8py               6.348185      14.363228
                          8       1    8pz               6.348185      14.363228

                          9       1    9px              17.637872      51.522606
                          9       1    9py              17.637872      51.522606
                          9       1    9pz              17.637872      51.522606

                         10       1    4s               20.273074       6.809258

                         11       1    5s               80.835140      19.213666

       Atomic covalent radius [Angstrom]:                                  0.770

       Atomic van der Waals radius [Angstrom]:                             1.700

     The atoms of this atomic kind are PAW atoms (GAPW):
       Hard Gaussian function radius:                                      1.512
       Rho0 radius:                                                        1.512
       Maximum GTO radius used for PAW projector construction:            24.566

     GAPW Soft Basis Set                                  aug-SZV-MOLOPT-ae_soft

       Number of orbital shell sets:                                           2
       Number of orbital shells:                                               6
       Number of primitive Cartesian functions:                                6
       Number of Cartesian basis functions:                                   15
       Number of spherical basis functions:                                   14
       Norm type:                                                              2

       Normalised Cartesian orbitals:

                        Set   Shell   Orbital            Exponent    Coefficient

                          1       1    2s                0.070000       0.000000
                                                         0.143687       0.040037
                                                         0.313471       0.177689
                                                         0.721783       0.139661
                                                         1.876046      -0.038599

                          1       2    3s                0.070000      -0.142268
                                                         0.143687       0.288819
                                                         0.313471       0.010360
                                                         0.721783       0.175994
                                                         1.876046       0.000000

                          1       3    3px               0.070000       0.000000
                                                         0.143687       0.012825
                                                         0.313471       0.142381
                                                         0.721783       0.396426
                                                         1.876046       0.544234
                          1       3    3py               0.070000       0.000000
                                                         0.143687       0.012825
                                                         0.313471       0.142381
                                                         0.721783       0.396426
                                                         1.876046       0.544234
                          1       3    3pz               0.070000       0.000000
                                                         0.143687       0.012825
                                                         0.313471       0.142381
                                                         0.721783       0.396426
                                                         1.876046       0.544234

                          1       4    4px               0.070000       0.076505
                                                         0.143687      -0.086104
                                                         0.313471       0.010230
                                                         0.721783       0.129894
                                                         1.876046       0.000000
                          1       4    4py               0.070000       0.076505
                                                         0.143687      -0.086104
                                                         0.313471       0.010230
                                                         0.721783       0.129894
                                                         1.876046       0.000000
                          1       4    4pz               0.070000       0.076505
                                                         0.143687      -0.086104
                                                         0.313471       0.010230
                                                         0.721783       0.129894
                                                         1.876046       0.000000

                          1       5    4dx2              0.070000       0.004316
                                                         0.143687       0.012639
                                                         0.313471       0.125057
                                                         0.721783       0.080411
                                                         1.876046       0.000000
                          1       5    4dxy              0.070000       0.007476
                                                         0.143687       0.021892
                                                         0.313471       0.216606
                                                         0.721783       0.139276
                                                         1.876046       0.000000
                          1       5    4dxz              0.070000       0.007476
                                                         0.143687       0.021892
                                                         0.313471       0.216606
                                                         0.721783       0.139276
                                                         1.876046       0.000000
                          1       5    4dy2              0.070000       0.004316
                                                         0.143687       0.012639
                                                         0.313471       0.125057
                                                         0.721783       0.080411
                                                         1.876046       0.000000
                          1       5    4dyz              0.070000       0.007476
                                                         0.143687       0.021892
                                                         0.313471       0.216606
                                                         0.721783       0.139276
                                                         1.876046       0.000000
                          1       5    4dz2              0.070000       0.004316
                                                         0.143687       0.012639
                                                         0.313471       0.125057
                                                         0.721783       0.080411
                                                         1.876046       0.000000

                          2       1    1s                2.093200       0.161650

     AE Potential information for                                            ALL

       Description:                                       All-electron potential
                                          Krack, Parrinello, PCCP 2, 2105 (2000)

       Gaussian exponent of the core charge distribution:               4.109048
       Electronic configuration (s p d ...):                           4   2   0


 MOLECULE KIND INFORMATION


 All atoms are their own molecule, skipping detailed information


 TOTAL NUMBERS AND MAXIMUM NUMBERS

  Total number of            - Atomic kinds:                                   1
                             - Atoms:                                          2
                             - Shell sets:                                     4
                             - Shells:                                        12
                             - Primitive Cartesian functions:                 26
                             - Cartesian basis functions:                     30
                             - Spherical basis functions:                     28

  Maximum angular momentum of the orbital basis functions:                     2


 MODULE QUICKSTEP: ATOMIC COORDINATES IN ANGSTROM

   Atom Kind Element         X             Y             Z       Z(eff)     Mass
      1    1 C     6     15.620000     15.000000     15.000000   6.0000  12.0107
      2    1 C     6     14.380000     15.000000     15.000000   6.0000  12.0107



 SCF PARAMETERS         Density guess:                                    ATOMIC
                        --------------------------------------------------------
                        max_scf:                                             500
                        max_scf_history:                                       0
                        max_diis:                                              4
                        --------------------------------------------------------
                        eps_scf:                                        1.00E-06
                        eps_scf_history:                                0.00E+00
                        eps_diis:                                       1.00E-01
                        eps_eigval:                                     1.00E-05
                        --------------------------------------------------------
                        level_shift [a.u.]:                             0.000000
                        added MOs                                        22    0
                        --------------------------------------------------------
                        Mixing method:                            BROYDEN_MIXING
                                                charge density mixing in g-space
                        --------------------------------------------------------
                        No outer SCF

 PW_GRID| Information for grid number                                          1
 PW_GRID| Grid distributed over                                    24 processors
 PW_GRID| Real space group dimensions                                    24    1
 PW_GRID| the grid is blocked:                                                NO
 PW_GRID| Cutoff [a.u.]                                                    250.0
 PW_GRID| spherical cutoff:                                                   NO
 PW_GRID|   Bounds   1           -202     202                Points:         405
 PW_GRID|   Bounds   2           -202     202                Points:         405
 PW_GRID|   Bounds   3           -202     202                Points:         405
 PW_GRID| Volume element (a.u.^3)  0.2743E-02     Volume (a.u.^3)    182205.0337
 PW_GRID| Grid span                                                    FULLSPACE
 PW_GRID|   Distribution                         Average         Max         Min
 PW_GRID|   G-Vectors                          2767921.9     2768175     2767770
 PW_GRID|   G-Rays                                6834.4        6835        6834
 PW_GRID|   Real Space Points                  2767921.9     2788425     2624400

 PW_GRID| Information for grid number                                          2
 PW_GRID| Number of the reference grid                                         1
 PW_GRID| Grid distributed over                                    24 processors
 PW_GRID| Real space group dimensions                                    24    1
 PW_GRID| the grid is blocked:                                                NO
 PW_GRID| Cutoff [a.u.]                                                     83.3
 PW_GRID| spherical cutoff:                                                   NO
 PW_GRID|   Bounds   1           -120     119                Points:         240
 PW_GRID|   Bounds   2           -120     119                Points:         240
 PW_GRID|   Bounds   3           -120     119                Points:         240
 PW_GRID| Volume element (a.u.^3)  0.1318E-01     Volume (a.u.^3)    182205.0337
 PW_GRID| Grid span                                                    FULLSPACE
 PW_GRID|   Distribution                         Average         Max         Min
 PW_GRID|   G-Vectors                           576000.0      576240      575760
 PW_GRID|   G-Rays                                2400.0        2401        2399
 PW_GRID|   Real Space Points                   576000.0      576000      576000

 PW_GRID| Information for grid number                                          3
 PW_GRID| Number of the reference grid                                         1
 PW_GRID| Grid distributed over                                    24 processors
 PW_GRID| Real space group dimensions                                    24    1
 PW_GRID| the grid is blocked:                                                NO
 PW_GRID| Cutoff [a.u.]                                                     27.8
 PW_GRID| spherical cutoff:                                                   NO
 PW_GRID|   Bounds   1            -67      67                Points:         135
 PW_GRID|   Bounds   2            -67      67                Points:         135
 PW_GRID|   Bounds   3            -67      67                Points:         135
 PW_GRID| Volume element (a.u.^3)  0.7406E-01     Volume (a.u.^3)    182205.0337
 PW_GRID| Grid span                                                    FULLSPACE
 PW_GRID|   Distribution                         Average         Max         Min
 PW_GRID|   G-Vectors                           102515.6      102735      102330
 PW_GRID|   G-Rays                                 759.4         761         758
 PW_GRID|   Real Space Points                   102515.6      109350       91125

 PW_GRID| Information for grid number                                          4
 PW_GRID| Number of the reference grid                                         1
 PW_GRID| Grid distributed over                                    24 processors
 PW_GRID| Real space group dimensions                                    24    1
 PW_GRID| the grid is blocked:                                                NO
 PW_GRID| Cutoff [a.u.]                                                      9.3
 PW_GRID| spherical cutoff:                                                   NO
 PW_GRID|   Bounds   1            -40      39                Points:          80
 PW_GRID|   Bounds   2            -40      39                Points:          80
 PW_GRID|   Bounds   3            -40      39                Points:          80
 PW_GRID| Volume element (a.u.^3)  0.3559         Volume (a.u.^3)    182205.0337
 PW_GRID| Grid span                                                    FULLSPACE
 PW_GRID|   Distribution                         Average         Max         Min
 PW_GRID|   G-Vectors                            21333.3       21360       21280
 PW_GRID|   G-Rays                                 266.7         267         266
 PW_GRID|   Real Space Points                    21333.3       25600       19200

 POISSON| Solver                                                         WAVELET
 POISSON| Wavelet| Scaling function                                           40
 POISSON| Periodicity                                                       NONE

 RS_GRID| Information for grid number                                          1
 RS_GRID|   Bounds   1           -202     202                Points:         405
 RS_GRID|   Bounds   2           -202     202                Points:         405
 RS_GRID|   Bounds   3           -202     202                Points:         405
 RS_GRID| Real space distribution over                                  4 groups
 RS_GRID| Real space distribution along direction                              2
 RS_GRID| Border size                                                         33
 RS_GRID| Real space distribution over                                  6 groups
 RS_GRID| Real space distribution along direction                              3
 RS_GRID| Border size                                                         33
 RS_GRID|   Distribution                         Average         Max         Min
 RS_GRID|   Planes                                 167.2         168         167
 RS_GRID|   Distribution                         Average         Max         Min
 RS_GRID|   Planes                                 133.5         134         133

 RS_GRID| Information for grid number                                          2
 RS_GRID|   Bounds   1           -120     119                Points:         240
 RS_GRID|   Bounds   2           -120     119                Points:         240
 RS_GRID|   Bounds   3           -120     119                Points:         240
 RS_GRID| Real space distribution over                                  4 groups
 RS_GRID| Real space distribution along direction                              2
 RS_GRID| Border size                                                         35
 RS_GRID| Real space distribution over                                  6 groups
 RS_GRID| Real space distribution along direction                              3
 RS_GRID| Border size                                                         35
 RS_GRID|   Distribution                         Average         Max         Min
 RS_GRID|   Planes                                 130.0         130         130
 RS_GRID|   Distribution                         Average         Max         Min
 RS_GRID|   Planes                                 110.0         110         110

 RS_GRID| Information for grid number                                          3
 RS_GRID|   Bounds   1            -67      67                Points:         135
 RS_GRID|   Bounds   2            -67      67                Points:         135
 RS_GRID|   Bounds   3            -67      67                Points:         135
 RS_GRID| Real space fully replicated
 RS_GRID| Group size                                                           1

 RS_GRID| Information for grid number                                          4
 RS_GRID|   Bounds   1            -40      39                Points:          80
 RS_GRID|   Bounds   2            -40      39                Points:          80
 RS_GRID|   Bounds   3            -40      39                Points:          80
 RS_GRID| Real space fully replicated
 RS_GRID| Group size                                                           1

  HFX_INFO| Replica ID:                                                        1
  HFX_INFO| FRACTION:                                               0.2500000000
  HFX_INFO| Interaction Potential:                                       COULOMB
  HFX_INFO| EPS_SCHWARZ:                                                 1.0E-10
  HFX_INFO| EPS_SCHWARZ_FORCES                                           1.0E-08
  HFX_INFO| EPS_STORAGE_SCALING:                                         1.0E+00
  HFX_INFO| NBINS:                                                            64
  HFX_INFO| BLOCK_SIZE:                                                        1
  HFX_INFO| Number of periodic shells considered:                           NONE
  HFX_INFO| Number of periodic cells considered:                            NONE

 
 RI-RPA| using GPW style
 

 OVERLAP MATRIX CONDITION NUMBER
 1-Norm Condition Number (Estimate)
   CN : |A|*|A^-1|:  4.289E+000 *  1.449E+002   = 6.216E+002  Log(1-CN):  2.7935
 1-Norm and 2-Norm Condition Numbers using Diagonalization
   CN : |A|*|A^-1|:  4.289E+000 *  1.449E+002   = 6.216E+002  Log(1-CN):  2.7935
   CN : max/min ev:  3.122E+000 /  7.957E-003   = 3.923E+002  Log(2-CN):  2.5936

 Number of electrons:                                                         12
 Number of occupied orbitals:                                                  6
 Number of molecular orbitals:                                                28

 Number of orbital functions:                                                 28
 Number of independent orbital functions:                                     28

 Extrapolation method: initial_guess

 Atomic guess: The first density matrix is obtained in terms of atomic orbitals
               and electronic configurations assigned to each atomic kind

 Guess for atomic kind: C

 Electronic structure
    Total number of core electrons                                          0.00
    Total number of valence electrons                                       6.00
    Total number of electrons                                               6.00
    Multiplicity                                                   not specified
    S      2.00  2.00
    P      2.00


 *******************************************************************************
                  Iteration          Convergence                     Energy [au]
 *******************************************************************************
                          1        0.181972E-01                 -37.327047058214
                          2        0.113690E-01                 -37.327375013153
                          3        0.204442E-03                 -37.327563854518
                          4        0.318580E-06                 -37.327563914839

 Energy components [Hartree]           Total Energy ::          -37.327563914839
                                        Band Energy ::          -20.907151793925
                                     Kinetic Energy ::           37.918401132701
                                   Potential Energy ::          -75.245965047540
                                      Virial (-V/T) ::            1.984418192745
                                        Core Energy ::          -50.466619839572
                                          XC Energy ::           -4.803795746723
                                     Coulomb Energy ::           17.942851671456

 Orbital energies  State     L     Occupation   Energy[a.u.]          Energy[eV]

                       1     0          2.000      -9.826687         -267.397747
                       2     0          2.000      -0.471401          -12.827469

                       1     1          2.000      -0.155488           -4.231050


 Total Electron Density at R=0:                                       107.717880
 Re-scaling the density matrix to get the right number of electrons
                  # Electrons              Trace(P)               Scaling factor
                           12                12.000                        1.000


 SCF WAVEFUNCTION OPTIMIZATION

  Step     Update method      Time    Convergence         Total energy    Change
  ------------------------------------------------------------------------------

  HFX_MEM_INFO| Est. max. program size before HFX [MiB]:                    2137
  HFX_MEM_INFO| Number of cart. primitive ERI's calculated:            191263304
  HFX_MEM_INFO| Number of sph. ERI's calculated:                          230496
  HFX_MEM_INFO| Number of sph. ERI's stored in-core:                      230496
  HFX_MEM_INFO| Number of sph. ERI's stored on disk:                           0
  HFX_MEM_INFO| Number of sph. ERI's calculated on the fly:                    0
  HFX_MEM_INFO| Total memory consumption ERI's RAM [MiB]:                      2
  HFX_MEM_INFO| Whereof max-vals [MiB]:                                        1
  HFX_MEM_INFO| Total compression factor ERI's RAM:                         1.10
  HFX_MEM_INFO| Total memory consumption ERI's disk [MiB]:                     0
  HFX_MEM_INFO| Total compression factor ERI's disk:                        0.00
  HFX_MEM_INFO| Size of density/Fock matrix [MiB]:                             0
  HFX_MEM_INFO| Size of buffers [MiB]:                                         0
  HFX_MEM_INFO| Est. max. program size after HFX  [MiB]:                    2647

     1 NoMix/Diag. 0.10E+00    8.3     1.32591114       -75.7719229692 -7.58E+01
     2 Broy./Diag. 0.10E+00    4.8     0.07035765       -75.8326049100 -6.07E-02
     3 Broy./Diag. 0.10E+00    5.0     0.01253433       -75.8138421366  1.88E-02
     4 Broy./Diag. 0.10E+00    4.8     0.07463632       -75.4723750320  3.41E-01
     5 Broy./Diag. 0.10E+00    4.8     0.01673072       -75.5200580825 -4.77E-02
     6 Broy./Diag. 0.10E+00    4.9     0.02360516       -75.5654084809 -4.54E-02
     7 Broy./Diag. 0.10E+00    5.0     0.01289249       -75.5987441072 -3.33E-02
     8 Broy./Diag. 0.10E+00    5.1     0.00461396       -75.6140421523 -1.53E-02
     9 Broy./Diag. 0.10E+00    5.2     0.01027230       -75.6279836283 -1.39E-02
    10 Broy./Diag. 0.10E+00    5.3     0.00262021       -75.6364107129 -8.43E-03
    11 Broy./Diag. 0.10E+00    5.3     0.00970992       -75.6283617784  8.05E-03
    12 Broy./Diag. 0.10E+00    5.3     0.00247358       -75.6323132818 -3.95E-03
    13 Broy./Diag. 0.10E+00    5.3     0.00212290       -75.6357893991 -3.48E-03
    14 Broy./Diag. 0.10E+00    5.3     0.00314677       -75.6423693915 -6.58E-03
    15 Broy./Diag. 0.10E+00    5.3     0.00072808       -75.6452190201 -2.85E-03
    16 Broy./Diag. 0.10E+00    5.3     0.00096928       -75.6438408794  1.38E-03
    17 Broy./Diag. 0.10E+00    5.3     0.00091562       -75.6442991012 -4.58E-04
    18 Broy./Diag. 0.10E+00    5.3     0.00085083       -75.6439877073  3.11E-04
    19 Broy./Diag. 0.10E+00    5.3     0.00036697       -75.6427031526  1.28E-03
    20 Broy./Diag. 0.10E+00    5.3     0.00176629       -75.6425483792  1.55E-04
    21 Broy./Diag. 0.10E+00    5.4     0.00174650       -75.6428174913 -2.69E-04
    22 Broy./Diag. 0.10E+00    5.3     0.00116925       -75.6427617216  5.58E-05
    23 Broy./Diag. 0.10E+00    5.3     0.00151359       -75.6428714888 -1.10E-04
    24 Broy./Diag. 0.10E+00    5.3     0.00138231       -75.6425790230  2.92E-04
    25 Broy./Diag. 0.10E+00    5.3     0.00129722       -75.6427756633 -1.97E-04
    26 Broy./Diag. 0.10E+00    5.4     0.00111493       -75.6426564388  1.19E-04
    27 Broy./Diag. 0.10E+00    5.4     0.00112673       -75.6432908418 -6.34E-04
    28 Broy./Diag. 0.10E+00    5.4     0.00122346       -75.6431642121  1.27E-04
    29 Broy./Diag. 0.10E+00    5.3     0.00096874       -75.6430729990  9.12E-05
    30 Broy./Diag. 0.10E+00    5.3     0.00111363       -75.6432055671 -1.33E-04
    31 Broy./Diag. 0.10E+00    5.3     0.00087127       -75.6430577185  1.48E-04
    32 Broy./Diag. 0.10E+00    5.4     0.00092296       -75.6429863302  7.14E-05
    33 Broy./Diag. 0.10E+00    5.3     0.00113310       -75.6429348513  5.15E-05
    34 Broy./Diag. 0.10E+00    5.3     0.00108029       -75.6429068733  2.80E-05
    35 Broy./Diag. 0.10E+00    5.3     0.00103524       -75.6432183424 -3.11E-04
    36 Broy./Diag. 0.10E+00    5.4     0.00049757       -75.6433745254 -1.56E-04
    37 Broy./Diag. 0.10E+00    5.3     0.00066204       -75.6432048997  1.70E-04
    38 Broy./Diag. 0.10E+00    5.3     0.00077232       -75.6432445740 -3.97E-05
    39 Broy./Diag. 0.10E+00    5.4     0.00073310       -75.6436631555 -4.19E-04
    40 Broy./Diag. 0.10E+00    5.3     0.00137272       -75.6427909603  8.72E-04
    41 Broy./Diag. 0.10E+00    5.3     0.00043293       -75.6432456186 -4.55E-04
    42 Broy./Diag. 0.10E+00    5.3     0.00194918       -75.6428472878  3.98E-04
    43 Broy./Diag. 0.10E+00    5.4     0.00191019       -75.6430699839 -2.23E-04
    44 Broy./Diag. 0.10E+00    5.3     0.00110757       -75.6424913359  5.79E-04
    45 Broy./Diag. 0.10E+00    5.3     0.00246125       -75.6428436001 -3.52E-04
    46 Broy./Diag. 0.10E+00    5.3     0.00111089       -75.6429471874 -1.04E-04
    47 Broy./Diag. 0.10E+00    5.3     0.00085335       -75.6428142791  1.33E-04
    48 Broy./Diag. 0.10E+00    5.3     0.00723631       -75.6458937215 -3.08E-03
    49 Broy./Diag. 0.10E+00    5.3     0.00632591       -75.6454897804  4.04E-04
    50 Broy./Diag. 0.10E+00    5.3     0.00495717       -75.6441199920  1.37E-03
    51 Broy./Diag. 0.10E+00    5.3     0.00227147       -75.6429590593  1.16E-03
    52 Broy./Diag. 0.10E+00    5.4     0.00172941       -75.6425632292  3.96E-04
    53 Broy./Diag. 0.10E+00    5.3     0.00067459       -75.6421715204  3.92E-04
    54 Broy./Diag. 0.10E+00    5.3     0.00098638       -75.6419858434  1.86E-04
    55 Broy./Diag. 0.10E+00    5.3     0.00111425       -75.6419829136  2.93E-06
    56 Broy./Diag. 0.10E+00    5.3     0.00077226       -75.6418836027  9.93E-05
    57 Broy./Diag. 0.10E+00    5.3     0.00033345       -75.6421195237 -2.36E-04
    58 Broy./Diag. 0.10E+00    5.3     0.00042287       -75.6428141380 -6.95E-04
    59 Broy./Diag. 0.10E+00    5.3     0.00035611       -75.6427568809  5.73E-05
    60 Broy./Diag. 0.10E+00    5.4     0.00022530       -75.6428034952 -4.66E-05
    61 Broy./Diag. 0.10E+00    5.4     0.00022263       -75.6428096144 -6.12E-06
    62 Broy./Diag. 0.10E+00    5.3     0.00028616       -75.6428301244 -2.05E-05
    63 Broy./Diag. 0.10E+00    5.3     0.00035841       -75.6428634766 -3.34E-05
    64 Broy./Diag. 0.10E+00    5.3     0.00044842       -75.6428327368  3.07E-05
    65 Broy./Diag. 0.10E+00    5.3     0.00095705       -75.6427769516  5.58E-05
    66 Broy./Diag. 0.10E+00    5.3     0.00068887       -75.6426283128  1.49E-04
    67 Broy./Diag. 0.10E+00    5.3     0.00083559       -75.6429319212 -3.04E-04
    68 Broy./Diag. 0.10E+00    5.3     0.00102949       -75.6430491681 -1.17E-04
    69 Broy./Diag. 0.10E+00    5.3     0.00130085       -75.6428363939  2.13E-04
    70 Broy./Diag. 0.10E+00    5.3     0.00164519       -75.6426607787  1.76E-04
    71 Broy./Diag. 0.10E+00    5.3     0.00208481       -75.6426703691 -9.59E-06
    72 Broy./Diag. 0.10E+00    5.4     0.00259034       -75.6426710193 -6.50E-07
    73 Broy./Diag. 0.10E+00    5.3     0.00324191       -75.6419978162  6.73E-04
    74 Broy./Diag. 0.10E+00    5.3     0.00405167       -75.6417661791  2.32E-04
    75 Broy./Diag. 0.10E+00    5.3     0.00507294       -75.6416758601  9.03E-05
    76 Broy./Diag. 0.10E+00    5.3     0.00629573       -75.6418239487 -1.48E-04
    77 Broy./Diag. 0.10E+00    5.3     0.00784083       -75.6414882804  3.36E-04
    78 Broy./Diag. 0.10E+00    5.4     0.00974236       -75.6407130548  7.75E-04
    79 Broy./Diag. 0.10E+00    5.3     0.01209473       -75.6391703023  1.54E-03
    80 Broy./Diag. 0.10E+00    5.3     0.01496216       -75.6371562115  2.01E-03
    81 Broy./Diag. 0.10E+00    5.3     0.01809175       -75.6340894480  3.07E-03
    82 Broy./Diag. 0.10E+00    5.3     0.02147080       -75.6289354778  5.15E-03
    83 Broy./Diag. 0.10E+00    5.3     0.02493195       -75.6211528676  7.78E-03
    84 Broy./Diag. 0.10E+00    5.3     0.03028140       -75.6103176038  1.08E-02
    85 Broy./Diag. 0.10E+00    5.3     0.04357961       -75.5967698858  1.35E-02
    86 Broy./Diag. 0.10E+00    5.3     0.05693694       -75.5776699337  1.91E-02
    87 Broy./Diag. 0.10E+00    5.3     0.06919825       -75.5512363806  2.64E-02
    88 Broy./Diag. 0.10E+00    5.4     0.07806304       -75.5173840394  3.39E-02
    89 Broy./Diag. 0.10E+00    5.4     0.08064269       -75.4795500048  3.78E-02
    90 Broy./Diag. 0.10E+00    5.3     0.07552490       -75.4410944678  3.85E-02
    91 Broy./Diag. 0.10E+00    5.3     0.06536917       -75.4047606064  3.63E-02
    92 Broy./Diag. 0.10E+00    5.3     0.05749518       -75.3715407305  3.32E-02
    93 Broy./Diag. 0.10E+00    5.3     0.04785782       -75.3387744043  3.28E-02
    94 Broy./Diag. 0.10E+00    5.4     0.03837133       -75.2980152526  4.08E-02
    95 Broy./Diag. 0.10E+00    5.3     0.02277784       -75.2575847157  4.04E-02
    96 Broy./Diag. 0.10E+00    5.3     0.02144820       -75.2314438710  2.61E-02
    97 Broy./Diag. 0.10E+00    5.3     0.01897341       -75.2022365250  2.92E-02
    98 Broy./Diag. 0.10E+00    5.3     0.01383859       -75.1647022247  3.75E-02
    99 Broy./Diag. 0.10E+00    5.2     0.04922368       -75.3137303738 -1.49E-01
   100 Broy./Diag. 0.10E+00    5.3     0.02881628       -75.4082714039 -9.45E-02
   101 Broy./Diag. 0.10E+00    5.3     0.09681669       -75.7747626823 -3.66E-01
   102 Broy./Diag. 0.10E+00    5.3     0.10434883       -75.8649589446 -9.02E-02
   103 Broy./Diag. 0.10E+00    5.3     0.08568011       -75.6433372131  2.22E-01
   104 Broy./Diag. 0.10E+00    5.3     0.07007707       -75.6534352949 -1.01E-02
   105 Broy./Diag. 0.10E+00    5.3     0.14453292       -75.5439976774  1.09E-01
   106 Broy./Diag. 0.10E+00    5.4     0.25264558       -75.3721680833  1.72E-01
   107 Broy./Diag. 0.10E+00    5.3     0.22781928       -75.2307944985  1.41E-01
   108 Broy./Diag. 0.10E+00    5.3     0.05755276       -75.1455647421  8.52E-02
   109 Broy./Diag. 0.10E+00    5.4     0.18571014       -75.5427484551 -3.97E-01
   110 Broy./Diag. 0.10E+00    5.3     0.23209628       -75.7427549745 -2.00E-01
   111 Broy./Diag. 0.10E+00    5.3     0.04499999       -75.6550832074  8.77E-02
   112 Broy./Diag. 0.10E+00    5.3     0.04623672       -75.5838528935  7.12E-02
   113 Broy./Diag. 0.10E+00    5.3     0.06453128       -75.6132409631 -2.94E-02
   114 Broy./Diag. 0.10E+00    5.3     0.03778856       -75.6374466310 -2.42E-02
   115 Broy./Diag. 0.10E+00    5.3     0.02852323       -75.6359601562  1.49E-03
   116 Broy./Diag. 0.10E+00    5.3     0.03817739       -75.6411425008 -5.18E-03
   117 Broy./Diag. 0.10E+00    5.3     0.04508937       -75.6626032453 -2.15E-02
   118 Broy./Diag. 0.10E+00    5.3     0.04861628       -75.6544711839  8.13E-03
   119 Broy./Diag. 0.10E+00    5.3     0.03728054       -75.6276337898  2.68E-02
   120 Broy./Diag. 0.10E+00    5.3     0.03748994       -75.6235285145  4.11E-03
   121 Broy./Diag. 0.10E+00    5.3     0.03643866       -75.6139909244  9.54E-03
   122 Broy./Diag. 0.10E+00    5.3     0.04366375       -75.5985163811  1.55E-02
   123 Broy./Diag. 0.10E+00    5.3     0.04666891       -75.5793969436  1.91E-02
   124 Broy./Diag. 0.10E+00    5.3     0.04619244       -75.5510947378  2.83E-02
   125 Broy./Diag. 0.10E+00    5.4     0.05308711       -75.5230237369  2.81E-02
   126 Broy./Diag. 0.10E+00    5.4     0.05019618       -75.5120108571  1.10E-02
   127 Broy./Diag. 0.10E+00    5.3     0.04855386       -75.4589104976  5.31E-02
   128 Broy./Diag. 0.10E+00    5.3     0.04549402       -75.4191233282  3.98E-02
   129 Broy./Diag. 0.10E+00    5.4     0.04929555       -75.3814528011  3.77E-02
   130 Broy./Diag. 0.10E+00    5.3     0.05184517       -75.3441376434  3.73E-02
   131 Broy./Diag. 0.10E+00    5.4     0.05237870       -75.3552411824 -1.11E-02
   132 Broy./Diag. 0.10E+00    5.3     0.05634873       -75.3763693189 -2.11E-02
   133 Broy./Diag. 0.10E+00    5.3     0.09142968       -75.2560958832  1.20E-01
   134 Broy./Diag. 0.10E+00    5.3     0.08580774       -75.1648107713  9.13E-02
   135 Broy./Diag. 0.10E+00    5.3     0.05375984       -75.1739772506 -9.17E-03
   136 Broy./Diag. 0.10E+00    5.3     0.06605606       -75.1782020056 -4.22E-03
   137 Broy./Diag. 0.10E+00    5.3     0.10438750       -75.2646293781 -8.64E-02
   138 Broy./Diag. 0.10E+00    5.3     0.04349125       -75.0735886515  1.91E-01
   139 Broy./Diag. 0.10E+00    5.3     0.04228755       -75.1559417607 -8.24E-02
   140 Broy./Diag. 0.10E+00    5.3     0.03617189       -75.3317054399 -1.76E-01
   141 Broy./Diag. 0.10E+00    5.3     0.00824458       -75.3438894413 -1.22E-02
   142 Broy./Diag. 0.10E+00    5.2     0.12862851       -75.3246670846  1.92E-02
   143 Broy./Diag. 0.10E+00    5.2     0.18114903       -75.4005169458 -7.58E-02
   144 Broy./Diag. 0.10E+00    5.3     0.12873814       -75.7899389828 -3.89E-01
   145 Broy./Diag. 0.10E+00    5.3     0.13851867       -76.0730198478 -2.83E-01
   146 Broy./Diag. 0.10E+00    5.3     0.10411015       -75.9918176143  8.12E-02
   147 Broy./Diag. 0.10E+00    5.4     0.15106061       -75.8871227285  1.05E-01
   148 Broy./Diag. 0.10E+00    5.4     0.20906841       -75.7971935099  8.99E-02
   149 Broy./Diag. 0.10E+00    5.3     0.19494826       -75.7568600936  4.03E-02
   150 Broy./Diag. 0.10E+00    5.4     0.12689126       -75.8092617910 -5.24E-02
   151 Broy./Diag. 0.10E+00    5.3     0.11712925       -75.7343650020  7.49E-02
   152 Broy./Diag. 0.10E+00    5.4     0.08884801       -75.7334799546  8.85E-04
   153 Broy./Diag. 0.10E+00    5.4     0.09009786       -75.7532152986 -1.97E-02
   154 Broy./Diag. 0.10E+00    5.4     0.08061777       -75.7882562896 -3.50E-02
   155 Broy./Diag. 0.10E+00    5.5     0.09700505       -75.8374033860 -4.91E-02
   156 Broy./Diag. 0.10E+00    5.3     0.09423089       -75.8332600318  4.14E-03
   157 Broy./Diag. 0.10E+00    5.3     0.04988034       -75.7889739331  4.43E-02
   158 Broy./Diag. 0.10E+00    5.4     0.02971977       -75.7543408194  3.46E-02
   159 Broy./Diag. 0.10E+00    5.3     0.05159331       -75.7366468325  1.77E-02
   160 Broy./Diag. 0.10E+00    5.3     0.02758867       -75.7050395654  3.16E-02
   161 Broy./Diag. 0.10E+00    5.4     0.04113645       -75.6513247278  5.37E-02
   162 Broy./Diag. 0.10E+00    5.3     0.02639460       -75.6394454563  1.19E-02
   163 Broy./Diag. 0.10E+00    5.4     0.02959950       -75.6176692213  2.18E-02
   164 Broy./Diag. 0.10E+00    5.3     0.06498368       -75.6107881410  6.88E-03
   165 Broy./Diag. 0.10E+00    5.3     0.07602320       -75.5975062647  1.33E-02
   166 Broy./Diag. 0.10E+00    5.3     0.06681996       -75.5879847851  9.52E-03
   167 Broy./Diag. 0.10E+00    5.3     0.04962076       -75.6088177800 -2.08E-02
   168 Broy./Diag. 0.10E+00    5.3     0.03507668       -75.6425687688 -3.38E-02
   169 Broy./Diag. 0.10E+00    5.3     0.05102397       -75.6462008000 -3.63E-03
   170 Broy./Diag. 0.10E+00    5.3     0.03218233       -75.6364006825  9.80E-03
   171 Broy./Diag. 0.10E+00    5.3     0.04159965       -75.6221405147  1.43E-02
   172 Broy./Diag. 0.10E+00    5.3     0.02874508       -75.6863515140 -6.42E-02
   173 Broy./Diag. 0.10E+00    5.3     0.03138480       -75.6466856641  3.97E-02
   174 Broy./Diag. 0.10E+00    5.3     0.01880544       -75.5967718134  4.99E-02
   175 Broy./Diag. 0.10E+00    5.3     0.07225027       -75.6055206016 -8.75E-03
   176 Broy./Diag. 0.10E+00    5.3     0.05637468       -75.6332151569 -2.77E-02
   177 Broy./Diag. 0.10E+00    5.4     0.07872724       -75.6531243091 -1.99E-02
   178 Broy./Diag. 0.10E+00    5.3     0.06407545       -75.6452680501  7.86E-03
   179 Broy./Diag. 0.10E+00    5.3     0.07159710       -75.6275581695  1.77E-02
   180 Broy./Diag. 0.10E+00    5.4     0.01888319       -75.6228159946  4.74E-03
   181 Broy./Diag. 0.10E+00    5.3     0.01088083       -75.6075897486  1.52E-02
   182 Broy./Diag. 0.10E+00    5.3     0.01355357       -75.5994591500  8.13E-03
   183 Broy./Diag. 0.10E+00    5.3     0.01067783       -75.6063258322 -6.87E-03
   184 Broy./Diag. 0.10E+00    5.3     0.02323243       -75.6018330174  4.49E-03
   185 Broy./Diag. 0.10E+00    5.3     0.08983100       -75.6127104958 -1.09E-02
   186 Broy./Diag. 0.10E+00    5.3     0.08160658       -75.6083983862  4.31E-03
   187 Broy./Diag. 0.10E+00    5.3     0.06540764       -75.5984101580  9.99E-03
   188 Broy./Diag. 0.10E+00    5.3     0.06504325       -75.6081826527 -9.77E-03
   189 Broy./Diag. 0.10E+00    5.2     0.05281044       -75.6040550399  4.13E-03
   190 Broy./Diag. 0.10E+00    5.3     0.04475237       -75.5898517074  1.42E-02
   191 Broy./Diag. 0.10E+00    5.3     0.03681545       -75.6031772163 -1.33E-02
   192 Broy./Diag. 0.10E+00    5.3     0.02713653       -75.6146743859 -1.15E-02
   193 Broy./Diag. 0.10E+00    5.3     0.04330913       -75.6238070636 -9.13E-03
   194 Broy./Diag. 0.10E+00    5.3     0.04469749       -75.6249649012 -1.16E-03
   195 Broy./Diag. 0.10E+00    5.3     0.06048058       -75.6366438630 -1.17E-02
   196 Broy./Diag. 0.10E+00    5.3     0.05514785       -75.6189105139  1.77E-02
   197 Broy./Diag. 0.10E+00    5.3     0.03802016       -75.6233411797 -4.43E-03
   198 Broy./Diag. 0.10E+00    5.3     0.03103118       -75.6185799994  4.76E-03
   199 Broy./Diag. 0.10E+00    5.3     0.02910872       -75.6034419691  1.51E-02
   200 Broy./Diag. 0.10E+00    5.3     0.05087547       -75.6082134864 -4.77E-03
   201 Broy./Diag. 0.10E+00    5.3     0.05365397       -75.6410187275 -3.28E-02
   202 Broy./Diag. 0.10E+00    5.3     0.04729601       -75.6520045013 -1.10E-02
   203 Broy./Diag. 0.10E+00    5.3     0.04577683       -75.6758004798 -2.38E-02
   204 Broy./Diag. 0.10E+00    5.3     0.04704395       -75.6870633527 -1.13E-02
   205 Broy./Diag. 0.10E+00    5.3     0.04265269       -75.6983087528 -1.12E-02
   206 Broy./Diag. 0.10E+00    5.3     0.04934354       -75.6991235570 -8.15E-04
   207 Broy./Diag. 0.10E+00    5.3     0.05334089       -75.6971598683  1.96E-03
   208 Broy./Diag. 0.10E+00    5.4     0.03043271       -75.6766623564  2.05E-02
   209 Broy./Diag. 0.10E+00    5.3     0.02201563       -75.6550219534  2.16E-02
   210 Broy./Diag. 0.10E+00    5.3     0.02348042       -75.6497547711  5.27E-03
   211 Broy./Diag. 0.10E+00    5.4     0.01273438       -75.6463516369  3.40E-03
   212 Broy./Diag. 0.10E+00    5.3     0.00662053       -75.6498172442 -3.47E-03
   213 Broy./Diag. 0.10E+00    5.3     0.00757763       -75.6533596969 -3.54E-03
   214 Broy./Diag. 0.10E+00    5.5     0.01020276       -75.6488123717  4.55E-03
   215 Broy./Diag. 0.10E+00    5.4     0.01259070       -75.6503259105 -1.51E-03
   216 Broy./Diag. 0.10E+00    5.4     0.01321370       -75.6522450088 -1.92E-03
   217 Broy./Diag. 0.10E+00    5.4     0.01521258       -75.6529701221 -7.25E-04
