 DBCSR| CPU Multiplication driver                                           BLAS (U)
 DBCSR| Multrec recursion limit                                              512 (U)
 DBCSR| Multiplication stack size                                           1000 (D)
 DBCSR| Maximum elements for images                                    UNLIMITED (U)
 DBCSR| Multiplicative factor virtual images                                   1 (U)
 DBCSR| Use multiplication densification                                       T (D)
 DBCSR| Multiplication size stacks                                             3 (U)
 DBCSR| Use memory pool for CPU allocation                                     F (U)
 DBCSR| Number of 3D layers                                               SINGLE (U)
 DBCSR| Use MPI memory allocation                                              F (U)
 DBCSR| Use RMA algorithm                                                      F (U)
 DBCSR| Use Communication thread                                               T (U)
 DBCSR| Communication thread load                                             75 (D)
 DBCSR| MPI: My process id                                                     0
 DBCSR| MPI: Number of processes                                              48
 DBCSR| OMP: Current number of threads                                         4
 DBCSR| OMP: Max number of threads                                             4
 DBCSR| Split modifier for TAS multiplication algorithm                  1.0E+00 (U)


  **** **** ******  **  PROGRAM STARTED AT               2025-03-26 06:55:36.847
 ***** ** ***  *** **   PROGRAM STARTED ON                          i05r08c01s10
 **    ****   ******    PROGRAM STARTED BY                               di38fab
 ***** **    ** ** **   PROGRAM PROCESS ID                               3608409
  **** **  *******  **  PROGRAM STARTED IN /hppfs/scratch/04/di38fab/05_MOL/W4-1
                                           1+ALK/bh/SZVSR/GW+BSE/1e-4

 CP2K| version string:                 CP2K version 2025.1 (Development Version)
 CP2K| source code revision number:                                  git:d2e611a
 CP2K| cp2kflags: omp libint fftw3 libxc parallel scalapack max_contr=4         
 CP2K| is freely available from                            https://www.cp2k.org/
 CP2K| Program compiled at                       Thu 06 Mar 2025 05:09:20 PM CET
 CP2K| Program compiled on                                               login02
 CP2K| Program compiled for                                        Supermuc-foss
 CP2K| Data directory path                  /hppfs/work/pn36zo/di38fab/cp2k/data
 CP2K| Input file name                                                    GW.inp

 GLOBAL| Force Environment number                                              1
 GLOBAL| Basis set file name            /hppfs/scratch/04/di38fab/04_TMD/BASIS_A
 GLOBAL| Potential file name            /hppfs/work/pn36zo/di38fab/cp2k/data/ALL
 GLOBAL| MM Potential file name                                     MM_POTENTIAL
 GLOBAL| Coordinate file name                                      __STD_INPUT__
 GLOBAL| Method name                                                        CP2K
 GLOBAL| Project name                                                       MoS2
 GLOBAL| Run type                                                         ENERGY
 GLOBAL| FFT library                                                       FFTW3
 GLOBAL| Diagonalization library                                       ScaLAPACK
 GLOBAL| DGEMM library                                                      BLAS
 GLOBAL| Orthonormality check for eigenvectors                          DISABLED
 GLOBAL| Matrix multiplication library                                 ScaLAPACK
 GLOBAL| All-to-all communication in single precision                          F
 GLOBAL| FFTs using library dependent lengths                                  F
 GLOBAL| Grid backend                                                       AUTO
 GLOBAL| Global print level                                               MEDIUM
 GLOBAL| MPI I/O enabled                                                       T
 GLOBAL| Total number of message passing processes                            48
 GLOBAL| Number of threads for this process                                    4
 GLOBAL| This output is from process                                           0
 GLOBAL| OpenMP stack size per thread (OMP_STACKSIZE)                    default
 GLOBAL| CPU model name             Intel(R) Xeon(R) Platinum 8174 CPU @ 3.10GHz

 MEMORY| system memory details [Kb]
 MEMORY|                        rank 0           min           max       average
 MEMORY| MemTotal             98436664      98436664      98436692      98436671
 MEMORY| MemFree              83887996      83830100      85564120      84337123
 MEMORY| Buffers                     0             0             0             0
 MEMORY| Cached                2406508       2307944       2406508       2379429
 MEMORY| Slab                  1239044        927436       1239044       1149597
 MEMORY| SReclaimable           275668        210812        275668        256794
 MEMORY| MemLikelyFree        86570172      86502240      88082876      86973346


 *** Fundamental physical constants (SI units) ***

 *** Literature: B. J. Mohr and B. N. Taylor,
 ***             CODATA recommended values of the fundamental physical
 ***             constants: 2006, Web Version 5.1
 ***             http://physics.nist.gov/constants

 Speed of light in vacuum [m/s]                             2.99792458000000E+08
 Magnetic constant or permeability of vacuum [N/A**2]       1.25663706143592E-06
 Electric constant or permittivity of vacuum [F/m]          8.85418781762039E-12
 Planck constant (h) [J*s]                                  6.62606896000000E-34
 Planck constant (h-bar) [J*s]                              1.05457162825177E-34
 Elementary charge [C]                                      1.60217648700000E-19
 Electron mass [kg]                                         9.10938215000000E-31
 Electron g factor [ ]                                     -2.00231930436220E+00
 Proton mass [kg]                                           1.67262163700000E-27
 Fine-structure constant                                    7.29735253760000E-03
 Rydberg constant [1/m]                                     1.09737315685270E+07
 Avogadro constant [1/mol]                                  6.02214179000000E+23
 Boltzmann constant [J/K]                                   1.38065040000000E-23
 Atomic mass unit [kg]                                      1.66053878200000E-27
 Bohr radius [m]                                            5.29177208590000E-11

 *** Conversion factors ***

 [u] -> [a.u.]                                              1.82288848426455E+03
 [Angstrom] -> [Bohr] = [a.u.]                              1.88972613288564E+00
 [a.u.] = [Bohr] -> [Angstrom]                              5.29177208590000E-01
 [a.u.] -> [s]                                              2.41888432650478E-17
 [a.u.] -> [fs]                                             2.41888432650478E-02
 [a.u.] -> [J]                                              4.35974393937059E-18
 [a.u.] -> [N]                                              8.23872205491840E-08
 [a.u.] -> [K]                                              3.15774647902944E+05
 [a.u.] -> [kJ/mol]                                         2.62549961709828E+03
 [a.u.] -> [kcal/mol]                                       6.27509468713739E+02
 [a.u.] -> [Pa]                                             2.94210107994716E+13
 [a.u.] -> [bar]                                            2.94210107994716E+08
 [a.u.] -> [atm]                                            2.90362800883016E+08
 [a.u.] -> [eV]                                             2.72113838565563E+01
 [a.u.] -> [Hz]                                             6.57968392072181E+15
 [a.u.] -> [1/cm] (wave numbers)                            2.19474631370540E+05
 [a.u./Bohr**2] -> [1/cm]                                   5.14048714338585E+03
 

 CELL_TOP| Volume [angstrom^3]:                                     27000.000000
 CELL_TOP| Vector a [angstrom    30.000     0.000     0.000   |a| =    30.000000
 CELL_TOP| Vector b [angstrom     0.000    30.000     0.000   |b| =    30.000000
 CELL_TOP| Vector c [angstrom     0.000     0.000    30.000   |c| =    30.000000
 CELL_TOP| Angle (b,c), alpha [degree]:                                90.000000
 CELL_TOP| Angle (a,c), beta  [degree]:                                90.000000
 CELL_TOP| Angle (a,b), gamma [degree]:                                90.000000
 CELL_TOP| Numerically orthorhombic:                                         YES
 CELL_TOP| Periodicity                                                      NONE

 GENERATE|  Preliminary Number of Bonds generated:                             0
 GENERATE|  Achieved consistency in connectivity generation.

 CELL| Volume [angstrom^3]:                                         27000.000000
 CELL| Vector a [angstrom]:      30.000     0.000     0.000   |a| =    30.000000
 CELL| Vector b [angstrom]:       0.000    30.000     0.000   |b| =    30.000000
 CELL| Vector c [angstrom]:       0.000     0.000    30.000   |c| =    30.000000
 CELL| Angle (b,c), alpha [degree]:                                    90.000000
 CELL| Angle (a,c), beta  [degree]:                                    90.000000
 CELL| Angle (a,b), gamma [degree]:                                    90.000000
 CELL| Numerically orthorhombic:                                             YES
 CELL| Periodicity                                                          NONE

 CELL_REF| Volume [angstrom^3]:                                     27000.000000
 CELL_REF| Vector a [angstrom    30.000     0.000     0.000   |a| =    30.000000
 CELL_REF| Vector b [angstrom     0.000    30.000     0.000   |b| =    30.000000
 CELL_REF| Vector c [angstrom     0.000     0.000    30.000   |c| =    30.000000
 CELL_REF| Angle (b,c), alpha [degree]:                                90.000000
 CELL_REF| Angle (a,c), beta  [degree]:                                90.000000
 CELL_REF| Angle (a,b), gamma [degree]:                                90.000000
 CELL_REF| Numerically orthorhombic:                                         YES
 CELL_REF| Periodicity                                                      NONE

 *******************************************************************************
 *******************************************************************************
 **                                                                           **
 **     #####                         ##              ##                      **
 **    ##   ##            ##          ##              ##                      **
 **   ##     ##                       ##            ######                    **
 **   ##     ##  ##   ##  ##   #####  ##  ##   ####   ##    #####    #####    **
 **   ##     ##  ##   ##  ##  ##      ## ##   ##      ##   ##   ##  ##   ##   **
 **   ##  ## ##  ##   ##  ##  ##      ####     ###    ##   ######   ######    **
 **    ##  ###   ##   ##  ##  ##      ## ##      ##   ##   ##       ##        **
 **     #######   #####   ##   #####  ##  ##  ####    ##    #####   ##        **
 **           ##                                                    ##        **
 **                                                                           **
 **                                                ... make the atoms dance   **
 **                                                                           **
 **            Copyright (C) by CP2K developers group (2000-2025)             **
 **                      J. Chem. Phys. 152, 194103 (2020)                    **
 **                                                                           **
 *******************************************************************************

 DFT| Spin restricted Kohn-Sham (RKS) calculation                            RKS
 DFT| Multiplicity                                                             1
 DFT| Number of spin states                                                    1
 DFT| Charge                                                                   0
 DFT| Self-interaction correction (SIC)                                       NO
 DFT| Cutoffs: density                                              1.000000E-10
 DFT|          gradient                                             1.000000E-10
 DFT|          tau                                                  1.000000E-10
 DFT|          cutoff_smoothing_range                               0.000000E+00
 DFT| XC density smoothing                                                  NONE
 DFT| XC derivatives                                                          PW

 FUNCTIONAL| PBE:
 FUNCTIONAL| J.P.Perdew, K.Burke, M.Ernzerhof, Phys. Rev. Letter, vol. 77, n 18,
 FUNCTIONAL|  pp. 3865-3868, (1996)sx=0.750sc=1.000{spin unpolarized}           


 QS| Method:                                                                GAPW
 QS| Density plane wave grid type                        NON-SPHERICAL FULLSPACE
 QS| Number of grid levels:                                                    4
 QS| Density cutoff [a.u.]:                                                250.0
 QS| Multi grid cutoff [a.u.]: 1) grid level                               250.0
 QS|                           2) grid level                                83.3
 QS|                           3) grid level                                27.8
 QS|                           4) grid level                                 9.3
 QS| Grid level progression factor:                                          3.0
 QS| Relative density cutoff [a.u.]:                                        50.0
 QS| Interaction thresholds: eps_pgf_orb:                                1.0E-12
 QS|                         eps_filter_matrix:                          0.0E+00
 QS|                         eps_core_charge:                            1.0E-14
 QS|                         eps_rho_gspace:                             1.0E-12
 QS|                         eps_rho_rspace:                             1.0E-12
 QS|                         eps_gvg_rspace:                             1.0E-06
 QS|                         eps_ppl:                                    1.0E-02
 QS|                         eps_ppnl:                                   1.0E-08
 QS| GAPW|      One center basis from orbital basis primitives
 QS| GAPW|                   eps_fit:                                    1.0E-04
 QS| GAPW|                   eps_iso:                                    1.0E-12
 QS| GAPW|                   eps_svd:                                    1.0E-08
 QS| GAPW|                   eps_cpc:                                    1.0E-12
 QS| GAPW|   atom-r-grid: quadrature:                                     GC_LOG
 QS| GAPW|      atom-s-grid:  max l :                                          4
 QS| GAPW|      max_l_rho0 :                                                   2
 QS| GAPW|      At least one kind is NOT PAW, i.e. it has only soft AO 
 QS| GAPW|      The NOT PAW atoms are treated fully GPW


 ATOMIC KIND INFORMATION

  1. Atomic kind: B                                     Number of atoms:       1

     Orbital Basis Set                                         aug-SZV-MOLOPT-ae

       Number of orbital shell sets:                                           2
       Number of orbital shells:                                               6
       Number of primitive Cartesian functions:                               13
       Number of Cartesian basis functions:                                   15
       Number of spherical basis functions:                                   14
       Norm type:                                                              2

       Normalised Cartesian orbitals:

                        Set   Shell   Orbital            Exponent    Coefficient

                          1       1    1s                0.109280       0.032606
                                                         0.155613       0.000000
                                                         0.238409       0.144712
                                                         0.548949       0.113742
                                                         1.426820      -0.031435
                                                         4.590809      -0.105038
                                                        23.194561      -0.099829

                          1       2    2s                0.109280      -0.049098
                                                         0.155613      -0.119813
                                                         0.238409      -0.025283
                                                         0.548949       0.056653
                                                         1.426820       0.132404
                                                         4.590809       0.000000
                                                        23.194561       0.000000

                          1       3    2px               0.109280       0.009109
                                                         0.155613       0.000000
                                                         0.238409       0.101125
                                                         0.548949       0.281559
                                                         1.426820       0.386539
                                                         4.590809       0.360915
                                                        23.194561       0.272788
                          1       3    2py               0.109280       0.009109
                                                         0.155613       0.000000
                                                         0.238409       0.101125
                                                         0.548949       0.281559
                                                         1.426820       0.386539
                                                         4.590809       0.360915
                                                        23.194561       0.272788
                          1       3    2pz               0.109280       0.009109
                                                         0.155613       0.000000
                                                         0.238409       0.101125
                                                         0.548949       0.281559
                                                         1.426820       0.386539
                                                         4.590809       0.360915
                                                        23.194561       0.272788

                          1       4    3px               0.109280       0.062233
                                                         0.155613       0.035668
                                                         0.238409       0.015304
                                                         0.548949      -0.003054
                                                         1.426820       0.021875
                                                         4.590809       0.000000
                                                        23.194561       0.000000
                          1       4    3py               0.109280       0.062233
                                                         0.155613       0.035668
                                                         0.238409       0.015304
                                                         0.548949      -0.003054
                                                         1.426820       0.021875
                                                         4.590809       0.000000
                                                        23.194561       0.000000
                          1       4    3pz               0.109280       0.062233
                                                         0.155613       0.035668
                                                         0.238409       0.015304
                                                         0.548949      -0.003054
                                                         1.426820       0.021875
                                                         4.590809       0.000000
                                                        23.194561       0.000000

                          1       5    3dx2              0.109280       0.000986
                                                         0.155613       0.002022
                                                         0.238409       0.109458
                                                         0.548949       0.095099
                                                         1.426820       0.028232
                                                         4.590809       0.000000
                                                        23.194561       0.000000
                          1       5    3dxy              0.109280       0.001708
                                                         0.155613       0.003503
                                                         0.238409       0.189586
                                                         0.548949       0.164717
                                                         1.426820       0.048900
                                                         4.590809       0.000000
                                                        23.194561       0.000000
                          1       5    3dxz              0.109280       0.001708
                                                         0.155613       0.003503
                                                         0.238409       0.189586
                                                         0.548949       0.164717
                                                         1.426820       0.048900
                                                         4.590809       0.000000
                                                        23.194561       0.000000
                          1       5    3dy2              0.109280       0.000986
                                                         0.155613       0.002022
                                                         0.238409       0.109458
                                                         0.548949       0.095099
                                                         1.426820       0.028232
                                                         4.590809       0.000000
                                                        23.194561       0.000000
                          1       5    3dyz              0.109280       0.001708
                                                         0.155613       0.003503
                                                         0.238409       0.189586
                                                         0.548949       0.164717
                                                         1.426820       0.048900
                                                         4.590809       0.000000
                                                        23.194561       0.000000
                          1       5    3dz2              0.109280       0.000986
                                                         0.155613       0.002022
                                                         0.238409       0.109458
                                                         0.548949       0.095099
                                                         1.426820       0.028232
                                                         4.590809       0.000000
                                                        23.194561       0.000000

                          2       1    1s              506.011837       0.696781
                                                        92.776716       1.051665
                                                        25.955582       1.381280
                                                         8.916443       1.362748
                                                         3.462516       0.753460
                                                         1.426055       0.121219

     RI Auxiliary Basis Set             RI_aug-SZV-MOLOPT-ae_N_RI_025_s_p_d_f_g_

       Number of orbital shell sets:                                           9
       Number of orbital shells:                                               9
       Number of primitive Cartesian functions:                                9
       Number of Cartesian basis functions:                                   29
       Number of spherical basis functions:                                   25
       Norm type:                                                              2

       Normalised Cartesian orbitals:

                        Set   Shell   Orbital            Exponent    Coefficient

                          1       1    1s                0.250341       0.252237

                          2       1    5px               0.273284       0.281648
                          2       1    5py               0.273284       0.281648
                          2       1    5pz               0.273284       0.281648

                          3       1    8dx2              0.455299       0.415363
                          3       1    8dxy              0.455299       0.719430
                          3       1    8dxz              0.455299       0.719430
                          3       1    8dy2              0.455299       0.415363
                          3       1    8dyz              0.455299       0.719430
                          3       1    8dz2              0.455299       0.415363

                          4       1    9fx3              0.675974       0.609953
                          4       1    9fx2y             0.675974       1.363897
                          4       1    9fx2z             0.675974       1.363897
                          4       1    9fxy2             0.675974       1.363897
                          4       1    9fxyz             0.675974       2.362339
                          4       1    9fxz2             0.675974       1.363897
                          4       1    9fy3              0.675974       0.609953
                          4       1    9fy2z             0.675974       1.363897
                          4       1    9fyz2             0.675974       1.363897
                          4       1    9fz3              0.675974       0.609953

                          5       1    6px               0.737183       0.973664
                          5       1    6py               0.737183       0.973664
                          5       1    6pz               0.737183       0.973664

                          6       1    2s                0.787813       0.595974

                          7       1    3s                5.974522       2.723563

                          8       1    7px               7.247300      16.949636
                          8       1    7py               7.247300      16.949636
                          8       1    7pz               7.247300      16.949636

                          9       1    4s               47.432595      12.881539

       Atomic covalent radius [Angstrom]:                                  0.820

       Atomic van der Waals radius [Angstrom]:                             1.920

     The atoms of this atomic kind are PAW atoms (GAPW):
       Hard Gaussian function radius:                                      1.512
       Rho0 radius:                                                        1.512
       Maximum GTO radius used for PAW projector construction:            24.566

     GAPW Soft Basis Set                                  aug-SZV-MOLOPT-ae_soft

       Number of orbital shell sets:                                           2
       Number of orbital shells:                                               6
       Number of primitive Cartesian functions:                                7
       Number of Cartesian basis functions:                                   15
       Number of spherical basis functions:                                   14
       Norm type:                                                              2

       Normalised Cartesian orbitals:

                        Set   Shell   Orbital            Exponent    Coefficient

                          1       1    1s                0.109280       0.032606
                                                         0.155613       0.000000
                                                         0.238409       0.144712
                                                         0.548949       0.113742
                                                         1.426820      -0.031435

                          1       2    2s                0.109280      -0.049098
                                                         0.155613      -0.119813
                                                         0.238409      -0.025283
                                                         0.548949       0.056653
                                                         1.426820       0.132404

                          1       3    2px               0.109280       0.009109
                                                         0.155613       0.000000
                                                         0.238409       0.101125
                                                         0.548949       0.281559
                                                         1.426820       0.386539
                          1       3    2py               0.109280       0.009109
                                                         0.155613       0.000000
                                                         0.238409       0.101125
                                                         0.548949       0.281559
                                                         1.426820       0.386539
                          1       3    2pz               0.109280       0.009109
                                                         0.155613       0.000000
                                                         0.238409       0.101125
                                                         0.548949       0.281559
                                                         1.426820       0.386539

                          1       4    3px               0.109280       0.062233
                                                         0.155613       0.035668
                                                         0.238409       0.015304
                                                         0.548949      -0.003054
                                                         1.426820       0.021875
                          1       4    3py               0.109280       0.062233
                                                         0.155613       0.035668
                                                         0.238409       0.015304
                                                         0.548949      -0.003054
                                                         1.426820       0.021875
                          1       4    3pz               0.109280       0.062233
                                                         0.155613       0.035668
                                                         0.238409       0.015304
                                                         0.548949      -0.003054
                                                         1.426820       0.021875

                          1       5    3dx2              0.109280       0.000986
                                                         0.155613       0.002022
                                                         0.238409       0.109458
                                                         0.548949       0.095099
                                                         1.426820       0.028232
                          1       5    3dxy              0.109280       0.001708
                                                         0.155613       0.003503
                                                         0.238409       0.189586
                                                         0.548949       0.164717
                                                         1.426820       0.048900
                          1       5    3dxz              0.109280       0.001708
                                                         0.155613       0.003503
                                                         0.238409       0.189586
                                                         0.548949       0.164717
                                                         1.426820       0.048900
                          1       5    3dy2              0.109280       0.000986
                                                         0.155613       0.002022
                                                         0.238409       0.109458
                                                         0.548949       0.095099
                                                         1.426820       0.028232
                          1       5    3dyz              0.109280       0.001708
                                                         0.155613       0.003503
                                                         0.238409       0.189586
                                                         0.548949       0.164717
                                                         1.426820       0.048900
                          1       5    3dz2              0.109280       0.000986
                                                         0.155613       0.002022
                                                         0.238409       0.109458
                                                         0.548949       0.095099
                                                         1.426820       0.028232

                          2       1    1s                3.462516       0.753460
                                                         1.426055       0.121219

     AE Potential information for                                            ALL

       Description:                                       All-electron potential
                                          Krack, Parrinello, PCCP 2, 2105 (2000)

       Gaussian exponent of the core charge distribution:               2.655410
       Electronic configuration (s p d ...):                           4   1   0

  2. Atomic kind: H                                     Number of atoms:       1

     Orbital Basis Set                                      aug-SZV-MOLOPT-ae-SR

       Number of orbital shell sets:                                           1
       Number of orbital shells:                                               4
       Number of primitive Cartesian functions:                                4
       Number of Cartesian basis functions:                                    6
       Number of spherical basis functions:                                    6
       Norm type:                                                              2

       Normalised Cartesian orbitals:

                        Set   Shell   Orbital            Exponent    Coefficient

                          1       1    2s                0.065428       0.000000
                                                         0.168855       0.083474
                                                         0.623914       0.267839
                                                         3.425251       0.276934

                          1       2    3s                0.065428      -0.066952
                                                         0.168855       0.261968
                                                         0.623914       0.081548
                                                         3.425251      -0.022414

                          1       3    4s                0.065428       0.165615
                                                         0.168855      -0.226449
                                                         0.623914      -0.005802
                                                         3.425251       0.005451

                          1       4    3px               0.065428       0.053063
                                                         0.168855      -0.030502
                                                         0.623914       0.062721
                                                         3.425251       0.019012
                          1       4    3py               0.065428       0.053063
                                                         0.168855      -0.030502
                                                         0.623914       0.062721
                                                         3.425251       0.019012
                          1       4    3pz               0.065428       0.053063
                                                         0.168855      -0.030502
                                                         0.623914       0.062721
                                                         3.425251       0.019012

     RI Auxiliary Basis Set             RI_aug-SZV-MOLOPT-ae-SR_N_RI_011_s_p_d_f

       Number of orbital shell sets:                                           7
       Number of orbital shells:                                               7
       Number of primitive Cartesian functions:                                7
       Number of Cartesian basis functions:                                   11
       Number of spherical basis functions:                                   11
       Norm type:                                                              2

       Normalised Cartesian orbitals:

                        Set   Shell   Orbital            Exponent    Coefficient

                          1       1    1s                0.220060       0.228990

                          2       1    6px               0.249217       0.250993
                          2       1    6py               0.249217       0.250993
                          2       1    6pz               0.249217       0.250993

                          3       1    2s                0.439991       0.385028

                          4       1    3s                1.250226       0.842658

                          5       1    7px               1.527347       2.420262
                          5       1    7py               1.527347       2.420262
                          5       1    7pz               1.527347       2.420262

                          6       1    4s                3.629850       1.874246

                          7       1    5s                7.032687       3.077875

       Atomic covalent radius [Angstrom]:                                  0.320

       Atomic van der Waals radius [Angstrom]:                             1.090

     AE Potential information for                                            ALL

       Description:                                       All-electron potential
                                          Krack, Parrinello, PCCP 2, 2105 (2000)

       Gaussian exponent of the core charge distribution:              12.500000
       Electronic configuration (s p d ...):                           1   0   0


 MOLECULE KIND INFORMATION


 All atoms are their own molecule, skipping detailed information


 TOTAL NUMBERS AND MAXIMUM NUMBERS

  Total number of            - Atomic kinds:                                   2
                             - Atoms:                                          2
                             - Shell sets:                                     3
                             - Shells:                                        10
                             - Primitive Cartesian functions:                 17
                             - Cartesian basis functions:                     21
                             - Spherical basis functions:                     20

  Maximum angular momentum of the orbital basis functions:                     2


 MODULE QUICKSTEP: ATOMIC COORDINATES IN ANGSTROM

   Atom Kind Element         X             Y             Z       Z(eff)     Mass
      1    1 B     5     15.616628     15.000000     15.000000   5.0000  10.8110
      2    2 H     1     14.383372     15.000000     15.000000   1.0000   1.0079



 SCF PARAMETERS         Density guess:                                    ATOMIC
                        --------------------------------------------------------
                        max_scf:                                             500
                        max_scf_history:                                       0
                        max_diis:                                              4
                        --------------------------------------------------------
                        eps_scf:                                        1.00E-06
                        eps_scf_history:                                0.00E+00
                        eps_diis:                                       1.00E-01
                        eps_eigval:                                     1.00E-05
                        --------------------------------------------------------
                        level_shift [a.u.]:                             0.000000
                        added MOs                                        17    0
                        --------------------------------------------------------
                        Mixing method:                            BROYDEN_MIXING
                                                charge density mixing in g-space
                        --------------------------------------------------------
                        No outer SCF

 PW_GRID| Information for grid number                                          1
 PW_GRID| Grid distributed over                                    48 processors
 PW_GRID| Real space group dimensions                                    48    1
 PW_GRID| the grid is blocked:                                                NO
 PW_GRID| Cutoff [a.u.]                                                    250.0
 PW_GRID| spherical cutoff:                                                   NO
 PW_GRID|   Bounds   1           -202     202                Points:         405
 PW_GRID|   Bounds   2           -202     202                Points:         405
 PW_GRID|   Bounds   3           -202     202                Points:         405
 PW_GRID| Volume element (a.u.^3)  0.2743E-02     Volume (a.u.^3)    182205.0337
 PW_GRID| Grid span                                                    FULLSPACE
 PW_GRID|   Distribution                         Average         Max         Min
 PW_GRID|   G-Vectors                          1383960.9     1384290     1383885
 PW_GRID|   G-Rays                                3417.2        3418        3417
 PW_GRID|   Real Space Points                  1383960.9     1476225     1312200

 PW_GRID| Information for grid number                                          2
 PW_GRID| Number of the reference grid                                         1
 PW_GRID| Grid distributed over                                    48 processors
 PW_GRID| Real space group dimensions                                    48    1
 PW_GRID| the grid is blocked:                                                NO
 PW_GRID| Cutoff [a.u.]                                                     83.3
 PW_GRID| spherical cutoff:                                                   NO
 PW_GRID|   Bounds   1           -120     119                Points:         240
 PW_GRID|   Bounds   2           -120     119                Points:         240
 PW_GRID|   Bounds   3           -120     119                Points:         240
 PW_GRID| Volume element (a.u.^3)  0.1318E-01     Volume (a.u.^3)    182205.0337
 PW_GRID| Grid span                                                    FULLSPACE
 PW_GRID|   Distribution                         Average         Max         Min
 PW_GRID|   G-Vectors                           288000.0      288720      287520
 PW_GRID|   G-Rays                                1200.0        1203        1198
 PW_GRID|   Real Space Points                   288000.0      288000      288000

 PW_GRID| Information for grid number                                          3
 PW_GRID| Number of the reference grid                                         1
 PW_GRID| Grid distributed over                                    48 processors
 PW_GRID| Real space group dimensions                                    48    1
 PW_GRID| the grid is blocked:                                                NO
 PW_GRID| Cutoff [a.u.]                                                     27.8
 PW_GRID| spherical cutoff:                                                   NO
 PW_GRID|   Bounds   1            -67      67                Points:         135
 PW_GRID|   Bounds   2            -67      67                Points:         135
 PW_GRID|   Bounds   3            -67      67                Points:         135
 PW_GRID| Volume element (a.u.^3)  0.7406E-01     Volume (a.u.^3)    182205.0337
 PW_GRID| Grid span                                                    FULLSPACE
 PW_GRID|   Distribution                         Average         Max         Min
 PW_GRID|   G-Vectors                            51257.8       51570       51030
 PW_GRID|   G-Rays                                 379.7         382         378
 PW_GRID|   Real Space Points                    51257.8       54675       36450

 PW_GRID| Information for grid number                                          4
 PW_GRID| Number of the reference grid                                         1
 PW_GRID| Grid distributed over                                    48 processors
 PW_GRID| Real space group dimensions                                    48    1
 PW_GRID| the grid is blocked:                                                NO
 PW_GRID| Cutoff [a.u.]                                                      9.3
 PW_GRID| spherical cutoff:                                                   NO
 PW_GRID|   Bounds   1            -40      39                Points:          80
 PW_GRID|   Bounds   2            -40      39                Points:          80
 PW_GRID|   Bounds   3            -40      39                Points:          80
 PW_GRID| Volume element (a.u.^3)  0.3559         Volume (a.u.^3)    182205.0337
 PW_GRID| Grid span                                                    FULLSPACE
 PW_GRID|   Distribution                         Average         Max         Min
 PW_GRID|   G-Vectors                            10666.7       10800       10560
 PW_GRID|   G-Rays                                 133.3         135         132
 PW_GRID|   Real Space Points                    10666.7       12800        6400

 POISSON| Solver                                                         WAVELET
 POISSON| Wavelet| Scaling function                                           40
 POISSON| Periodicity                                                       NONE

 RS_GRID| Information for grid number                                          1
 RS_GRID|   Bounds   1           -202     202                Points:         405
 RS_GRID|   Bounds   2           -202     202                Points:         405
 RS_GRID|   Bounds   3           -202     202                Points:         405
 RS_GRID| Real space distribution over                                  3 groups
 RS_GRID| Real space distribution along direction                              1
 RS_GRID| Border size                                                         32
 RS_GRID| Real space distribution over                                  4 groups
 RS_GRID| Real space distribution along direction                              2
 RS_GRID| Border size                                                         32
 RS_GRID| Real space distribution over                                  4 groups
 RS_GRID| Real space distribution along direction                              3
 RS_GRID| Border size                                                         32
 RS_GRID|   Distribution                         Average         Max         Min
 RS_GRID|   Planes                                 199.0         199         199
 RS_GRID|   Distribution                         Average         Max         Min
 RS_GRID|   Planes                                 165.2         166         165
 RS_GRID|   Distribution                         Average         Max         Min
 RS_GRID|   Planes                                 165.2         166         165

 RS_GRID| Information for grid number                                          2
 RS_GRID|   Bounds   1           -120     119                Points:         240
 RS_GRID|   Bounds   2           -120     119                Points:         240
 RS_GRID|   Bounds   3           -120     119                Points:         240
 RS_GRID| Real space distribution over                                  3 groups
 RS_GRID| Real space distribution along direction                              1
 RS_GRID| Border size                                                         35
 RS_GRID| Real space distribution over                                  4 groups
 RS_GRID| Real space distribution along direction                              2
 RS_GRID| Border size                                                         35
 RS_GRID| Real space distribution over                                  4 groups
 RS_GRID| Real space distribution along direction                              3
 RS_GRID| Border size                                                         35
 RS_GRID|   Distribution                         Average         Max         Min
 RS_GRID|   Planes                                 150.0         150         150
 RS_GRID|   Distribution                         Average         Max         Min
 RS_GRID|   Planes                                 130.0         130         130
 RS_GRID|   Distribution                         Average         Max         Min
 RS_GRID|   Planes                                 130.0         130         130

 RS_GRID| Information for grid number                                          3
 RS_GRID|   Bounds   1            -67      67                Points:         135
 RS_GRID|   Bounds   2            -67      67                Points:         135
 RS_GRID|   Bounds   3            -67      67                Points:         135
 RS_GRID| Real space fully replicated
 RS_GRID| Group size                                                           1

 RS_GRID| Information for grid number                                          4
 RS_GRID|   Bounds   1            -40      39                Points:          80
 RS_GRID|   Bounds   2            -40      39                Points:          80
 RS_GRID|   Bounds   3            -40      39                Points:          80
 RS_GRID| Real space fully replicated
 RS_GRID| Group size                                                           1

  HFX_INFO| Replica ID:                                                        1
  HFX_INFO| FRACTION:                                               0.2500000000
  HFX_INFO| Interaction Potential:                                       COULOMB
  HFX_INFO| EPS_SCHWARZ:                                                 1.0E-10
  HFX_INFO| EPS_SCHWARZ_FORCES                                           1.0E-08
  HFX_INFO| EPS_STORAGE_SCALING:                                         1.0E+00
  HFX_INFO| NBINS:                                                            64
  HFX_INFO| BLOCK_SIZE:                                                        1
  HFX_INFO| Number of periodic shells considered:                           NONE
  HFX_INFO| Number of periodic cells considered:                            NONE

 
 RI-RPA| using GPW style
 

 OVERLAP MATRIX CONDITION NUMBER
 1-Norm Condition Number (Estimate)
   CN : |A|*|A^-1|:  4.799E+000 *  8.071E+001   = 3.873E+002  Log(1-CN):  2.5881
 1-Norm and 2-Norm Condition Numbers using Diagonalization
   CN : |A|*|A^-1|:  4.799E+000 *  8.071E+001   = 3.873E+002  Log(1-CN):  2.5881
   CN : max/min ev:  3.447E+000 /  1.887E-002   = 1.827E+002  Log(2-CN):  2.2617

 Number of electrons:                                                          6
 Number of occupied orbitals:                                                  3
 Number of molecular orbitals:                                                20

 Number of orbital functions:                                                 20
 Number of independent orbital functions:                                     20

 Extrapolation method: initial_guess

 Atomic guess: The first density matrix is obtained in terms of atomic orbitals
               and electronic configurations assigned to each atomic kind

 Guess for atomic kind: B

 Electronic structure
    Total number of core electrons                                          0.00
    Total number of valence electrons                                       5.00
    Total number of electrons                                               5.00
    Multiplicity                                                   not specified
    S      2.00  2.00
    P      1.00


 *******************************************************************************
                  Iteration          Convergence                     Energy [au]
 *******************************************************************************
                          1        0.612489E-01                 -24.304439508901
                          2        0.220484E-01                 -24.305945213911
                          3        0.367076E-03                 -24.306247196960
                          4        0.456899E-05                 -24.306247340970
                          5        0.241868E-07                 -24.306247340986

 Energy components [Hartree]           Total Energy ::          -24.306247340986
                                        Band Energy ::          -13.825803348850
                                     Kinetic Energy ::           23.970530113188
                                   Potential Energy ::          -48.276777454174
                                      Virial (-V/T) ::            2.014005415242
                                        Core Energy ::          -32.361048727638
                                          XC Energy ::           -3.546375173816
                                     Coulomb Energy ::           11.601176560468

 Orbital energies  State     L     Occupation   Energy[a.u.]          Energy[eV]

                       1     0          2.000      -6.531739         -177.737651
                       2     0          2.000      -0.324835           -8.839199

                       1     1          1.000      -0.112657           -3.065543


 Total Electron Density at R=0:                                        58.671969

 Guess for atomic kind: H

 Electronic structure
    Total number of core electrons                                          0.00
    Total number of valence electrons                                       1.00
    Total number of electrons                                               1.00
    Multiplicity                                                   not specified
    S      1.00


 *******************************************************************************
                  Iteration          Convergence                     Energy [au]
 *******************************************************************************
                          1        0.105001E-01                  -0.442912571909
                          2        0.809393E-03                  -0.443000038014
                          3        0.126045E-03                  -0.443002205783
                          4        0.926691E-07                  -0.443002227638

 Energy components [Hartree]           Total Energy ::           -0.443002227638
                                        Band Energy ::           -0.231242105371
                                     Kinetic Energy ::            0.416655567325
                                   Potential Energy ::           -0.859657794963
                                      Virial (-V/T) ::            2.063233669195
                                        Core Energy ::           -0.493343888102
                                          XC Energy ::           -0.231659799565
                                     Coulomb Energy ::            0.282001460029

 Orbital energies  State     L     Occupation   Energy[a.u.]          Energy[eV]

                       1     0          1.000      -0.231242           -6.292418


 Total Electron Density at R=0:                                         0.184980
 Re-scaling the density matrix to get the right number of electrons
                  # Electrons              Trace(P)               Scaling factor
                            6                 6.000                        1.000


 SCF WAVEFUNCTION OPTIMIZATION

  Step     Update method      Time    Convergence         Total energy    Change
  ------------------------------------------------------------------------------

  HFX_MEM_INFO| Est. max. program size before HFX [MiB]:                    1313
  HFX_MEM_INFO| Number of cart. primitive ERI's calculated:             43704780
  HFX_MEM_INFO| Number of sph. ERI's calculated:                           73312
  HFX_MEM_INFO| Number of sph. ERI's stored in-core:                       73312
  HFX_MEM_INFO| Number of sph. ERI's stored on disk:                           0
  HFX_MEM_INFO| Number of sph. ERI's calculated on the fly:                    0
  HFX_MEM_INFO| Total memory consumption ERI's RAM [MiB]:                      2
  HFX_MEM_INFO| Whereof max-vals [MiB]:                                        2
  HFX_MEM_INFO| Total compression factor ERI's RAM:                         0.32
  HFX_MEM_INFO| Total memory consumption ERI's disk [MiB]:                     0
  HFX_MEM_INFO| Total compression factor ERI's disk:                        0.00
  HFX_MEM_INFO| Size of density/Fock matrix [MiB]:                             0
  HFX_MEM_INFO| Size of buffers [MiB]:                                         0
  HFX_MEM_INFO| Est. max. program size after HFX  [MiB]:                    1830

     1 NoMix/Diag. 0.10E+00    5.6     0.48627715       -25.1373355741 -2.51E+01
     2 Broy./Diag. 0.10E+00    2.6     0.06983886       -24.9976592699  1.40E-01
     3 Broy./Diag. 0.10E+00    2.7     0.10014014       -24.7573029836  2.40E-01
     4 Broy./Diag. 0.10E+00    2.6     0.18661656       -25.0517070029 -2.94E-01
     5 Broy./Diag. 0.10E+00    2.6     0.03467022       -25.1128193628 -6.11E-02
     6 Broy./Diag. 0.10E+00    2.7     0.00727640       -25.1066869272  6.13E-03
     7 Broy./Diag. 0.10E+00    2.7     0.02687707       -25.1373925953 -3.07E-02
     8 Broy./Diag. 0.10E+00    2.8     0.01270695       -25.1697314428 -3.23E-02
     9 Broy./Diag. 0.10E+00    2.8     0.00604148       -25.1845820690 -1.49E-02
    10 Broy./Diag. 0.10E+00    2.8     0.01505292       -25.2080760108 -2.35E-02
    11 Broy./Diag. 0.10E+00    2.8     0.00330666       -25.2173200224 -9.24E-03
    12 Broy./Diag. 0.10E+00    2.9     0.00178759       -25.2150385763  2.28E-03
    13 Broy./Diag. 0.10E+00    2.9     0.00242420       -25.2094160310  5.62E-03
    14 Broy./Diag. 0.10E+00    2.8     0.00071825       -25.2105674366 -1.15E-03
    15 Broy./Diag. 0.10E+00    2.8     0.00102600       -25.2118796593 -1.31E-03
    16 Broy./Diag. 0.10E+00    2.9     0.00085300       -25.2104769537  1.40E-03
    17 Broy./Diag. 0.10E+00    2.9     0.00040048       -25.2107293525 -2.52E-04
    18 Broy./Diag. 0.10E+00    2.9     0.00071542       -25.2113588123 -6.29E-04
    19 Broy./Diag. 0.10E+00    2.9     0.00040549       -25.2112466610  1.12E-04
    20 Broy./Diag. 0.10E+00    2.9     0.00014384       -25.2113226295 -7.60E-05
    21 Broy./Diag. 0.10E+00    2.8     0.00046735       -25.2110819775  2.41E-04
    22 Broy./Diag. 0.10E+00    2.9     0.00032086       -25.2108286829  2.53E-04
    23 Broy./Diag. 0.10E+00    2.8     0.00005837       -25.2108943965 -6.57E-05
    24 Broy./Diag. 0.10E+00    3.0     0.00012525       -25.2107790414  1.15E-04
    25 Broy./Diag. 0.10E+00    2.8     0.00010861       -25.2105432120  2.36E-04
    26 Broy./Diag. 0.10E+00    2.9     0.00004127       -25.2104828946  6.03E-05
    27 Broy./Diag. 0.10E+00    2.9     0.00011277       -25.2102829123  2.00E-04
    28 Broy./Diag. 0.10E+00    2.9     0.00001546       -25.2101859075  9.70E-05
    29 Broy./Diag. 0.10E+00    2.9     0.00004029       -25.2101762558  9.65E-06
    30 Broy./Diag. 0.10E+00    2.9     0.00000883       -25.2102017798 -2.55E-05
    31 Broy./Diag. 0.10E+00    2.9     0.00003519       -25.2102739589 -7.22E-05
    32 Broy./Diag. 0.10E+00    3.0     0.00002073       -25.2103271252 -5.32E-05
    33 Broy./Diag. 0.10E+00    2.8     0.00003215       -25.2103474001 -2.03E-05
    34 Broy./Diag. 0.10E+00    2.8     0.00001329       -25.2103466911  7.09E-07
    35 Broy./Diag. 0.10E+00    2.9     0.00001558       -25.2103301470  1.65E-05
    36 Broy./Diag. 0.10E+00    2.9     0.00000486       -25.2103224920  7.66E-06
    37 Broy./Diag. 0.10E+00    2.9     0.00000879       -25.2103059854  1.65E-05
    38 Broy./Diag. 0.10E+00    2.9     0.00000630       -25.2102820570  2.39E-05
    39 Broy./Diag. 0.10E+00    2.9     0.00000836       -25.2102585513  2.35E-05
    40 Broy./Diag. 0.10E+00    2.9     0.00000224       -25.2102469359  1.16E-05
    41 Broy./Diag. 0.10E+00    2.9     0.00000100       -25.2102454713  1.46E-06

  *** SCF run converged in    41 steps ***


  Electronic density on regular grids:         -4.5668856817        1.4331143183
  Core density on regular grids:                1.0000000000       -5.0000000000
  Hard and soft densities (Lebedev):           -6.2710342914       -4.8379194391
  Total Rho_soft + Rho1_hard - Rho1_soft       -6.0000005340
  Total charge density (r-space):              -5.0000005340
  Total Rho_soft + Rho0_soft (g-space):        -0.0000005409

  Overlap energy of the core charge distribution:               0.00000230416181
  Self energy of the core charge distribution:                -17.66281176767632
  Core Hamiltonian energy:                                     -6.23322745962579
  Hartree energy:                                               9.04021392096657
  Exchange-correlation energy:                                 -1.26898082610708
  Hartree-Fock Exchange energy:                                -1.02883393501727

  GAPW| Exc from hard and soft atomic rho1:                    -1.93521936166845
  GAPW| local Eh = 1 center integrals:                         -6.12138834637330

  Total energy:                                               -25.21024547133981

 !-----------------------------------------------------------------------------!
                     Mulliken Population Analysis

 #  Atom  Element  Kind  Atomic population                           Net charge
       1     B        1          5.069345                             -0.069345
       2     H        2          0.930655                              0.069345
 # Total charge                              6.000000                  0.000000

 !-----------------------------------------------------------------------------!

 !-----------------------------------------------------------------------------!
                           Hirshfeld Charges

  #Atom  Element  Kind  Ref Charge     Population                    Net charge
      1       B      1       5.000          5.416                        -0.416
      2       H      2       1.000          0.575                         0.425

  Total Charge                                                            0.009
 !-----------------------------------------------------------------------------!


 RI-RPA section
 --------------

  Used number of processes per group:                                          1
  Maximum allowed memory usage per MPI process:                      1024.00 MiB

 *******************************************************************************
 *   ___                                                                       *
 *  /   \                                                                      *
 * [ABORT]                                                                     *
 *  \___/   Product of block size and number of RI functions should not exceed *
 *    |                          total number of processes                     *
 *  O/|                                                                        *
 * /| |                                                                        *
 * / \                                                         mp2_ri_2c.F:892 *
 *******************************************************************************



 *******************************************************************************
 *   ___                                                                       *
 *  /   \                                                                      *
 * [ABORT]                                                                     *
 *  \___/   Product of block size and number of RI functions should not exceed *
 *    |                          total number of processes                     *
 *  O/|                                                                        *
 * /| |                                                                        *
 * / \                                                         mp2_ri_2c.F:892 *
 *******************************************************************************


 ===== Routine Calling Stack ===== 

 *******************************************************************************
 *   ___                                                                       *
 *  /   \                                                                      *
 * [ABORT]                                                                     *
 *  \___/   Product of block size and number of RI functions should not exceed *
 *    |                          total number of processes                     *
 *  O/|                                                                        *
 * /| |                                                                        *
 * / \                                                         mp2_ri_2c.F:892 *
 *******************************************************************************


 ===== Routine Calling Stack ===== 

            7 compute_2c_integrals
            6 get_2c_integrals
            5 mp2_ri_gpw_compute_in
            4 mp2_gpw_main
            3 mp2_main
            2 qs_energies
            1 CP2K

 *******************************************************************************
 *   ___                                                                       *
 *  /   \                                                                      *
 * [ABORT]                                                                     *
 *  \___/   Product of block size and number of RI functions should not exceed *
 *    |                          total number of processes                     *
 *  O/|                                                                        *
 * /| |                                                                        *
 * / \                                                         mp2_ri_2c.F:892 *
 *******************************************************************************


 *******************************************************************************
 *   ___                                                                       *
 *  /   \                                                                      *
 * [ABORT]                                                                     *
 *  \___/   Product of block size and number of RI functions should not exceed *
 *    |                          total number of processes                     *
 *  O/|                                                                        *
 * /| |                                                                        *
 * / \                                                         mp2_ri_2c.F:892 *
 *******************************************************************************


 ===== Routine Calling Stack ===== 

            7 compute_2c_integrals
            6 get_2c_integrals
            5 mp2_ri_gpw_compute_in
            4 mp2_gpw_main
            3 mp2_main
            2 qs_energies
            1 CP2K

 *******************************************************************************
 *   ___                                                                       *
 *  /   \                                                                      *
 * [ABORT]                                                                     *
 *  \___/   Product of block size and number of RI functions should not exceed *
 *    |                          total number of processes                     *
 *  O/|                                                                        *
 * /| |                                                                        *
 * / \                                                         mp2_ri_2c.F:892 *
 *******************************************************************************


 ===== Routine Calling Stack ===== 

            7 compute_2c_integrals
            6 get_2c_integrals
            5 mp2_ri_gpw_compute_in
            4 mp2_gpw_main
            3 mp2_main
            2 qs_energies
            1 CP2K

 *******************************************************************************
 *   ___                                                                       *
 *  /   \                                                                      *
 * [ABORT]                                                                     *
 *  \___/   Product of block size and number of RI functions should not exceed *
 *    |                          total number of processes                     *
 *  O/|                                                                        *
 * /| |                                                                        *
 * / \                                                         mp2_ri_2c.F:892 *
 *******************************************************************************


 ===== Routine Calling Stack ===== 

            7 compute_2c_integrals
            6 get_2c_integrals
            5 mp2_ri_gpw_compute_in
            4 mp2_gpw_main
            3 mp2_main
            2 qs_energies
            1 CP2K

 *******************************************************************************
 *   ___                                                                       *
 *  /   \                                                                      *
 * [ABORT]                                                                     *
 *  \___/   Product of block size and number of RI functions should not exceed *
 *    |                          total number of processes                     *
 *  O/|                                                                        *
 * /| |                                                                        *
 * / \                                                         mp2_ri_2c.F:892 *
 *******************************************************************************


 ===== Routine Calling Stack ===== 

            7 compute_2c_integrals
            6 get_2c_integrals
            5 mp2_ri_gpw_compute_in
            4 mp2_gpw_main
            3 mp2_main
            2 qs_energies
            1 CP2K

 *******************************************************************************
 *   ___                                                                       *
 *  /   \                                                                      *
 * [ABORT]                                                                     *
 *  \___/   Product of block size and number of RI functions should not exceed *
 *    |                          total number of processes                     *
 *  O/|                                                                        *
 * /| |                                                                        *
 * / \                                                         mp2_ri_2c.F:892 *
 *******************************************************************************


 ===== Routine Calling Stack ===== 

            7 compute_2c_integrals
            6 get_2c_integrals
            5 mp2_ri_gpw_compute_in
            4 mp2_gpw_main
            3 mp2_main
            2 qs_energies
            1 CP2K

 *******************************************************************************
 *   ___                                                                       *
 *  /   \                                                                      *
 * [ABORT]                                                                     *
 *  \___/   Product of block size and number of RI functions should not exceed *
 *    |                          total number of processes                     *
 *  O/|                                                                        *
 * /| |                                                                        *
 * / \                                                         mp2_ri_2c.F:892 *
 *******************************************************************************


 ===== Routine Calling Stack ===== 

            7 compute_2c_integrals
            6 get_2c_integrals
            5 mp2_ri_gpw_compute_in
            4 mp2_gpw_main
            3 mp2_main
            2 qs_energies
            1 CP2K

 *******************************************************************************
 *   ___                                                                       *
 *  /   \                                                                      *
 * [ABORT]                                                                     *
 *  \___/   Product of block size and number of RI functions should not exceed *
 *    |                          total number of processes                     *
 *  O/|                                                                        *
 * /| |                                                                        *
 * / \                                                         mp2_ri_2c.F:892 *
 *******************************************************************************


 ===== Routine Calling Stack ===== 

            7 compute_2c_integrals
            6 get_2c_integrals
            5 mp2_ri_gpw_compute_in
            4 mp2_gpw_main
            3 mp2_main
            2 qs_energies
            1 CP2K

 *******************************************************************************
 *   ___                                                                       *
 *  /   \                                                                      *
 * [ABORT]                                                                     *
 *  \___/   Product of block size and number of RI functions should not exceed *
 *    |                          total number of processes                     *
 *  O/|                                                                        *
 * /| |                                                                        *
 * / \                                                         mp2_ri_2c.F:892 *
 *******************************************************************************


 ===== Routine Calling Stack ===== 

            7 compute_2c_integrals
            6 get_2c_integrals
            5 mp2_ri_gpw_compute_in
            4 mp2_gpw_main
            3 mp2_main
            2 qs_energies
            1 CP2K
 ===== Routine Calling Stack ===== 

            7 compute_2c_integrals
            6 get_2c_integrals
            5 mp2_ri_gpw_compute_in
            4 mp2_gpw_main
            3 mp2_main
            2 qs_energies
            1 CP2K

            7 compute_2c_integrals
            6 get_2c_integrals
            5 mp2_ri_gpw_compute_in
            4 mp2_gpw_main
            3 mp2_main
            2 qs_energies
            1 CP2K

 ===== Routine Calling Stack ===== 

            7 compute_2c_integrals
            6 get_2c_integrals
            5 mp2_ri_gpw_compute_in
            4 mp2_gpw_main
            3 mp2_main
            2 qs_energies
            1 CP2K

 *******************************************************************************
 *   ___                                                                       *
 *  /   \                                                                      *
 * [ABORT]                                                                     *
 *  \___/   Product of block size and number of RI functions should not exceed *
 *    |                          total number of processes                     *
 *  O/|                                                                        *
 * /| |                                                                        *
 * / \                                                         mp2_ri_2c.F:892
 *******************************************************************************
 *   ___                                                                       *
 *  /   \                                                                      *
 * [ABORT]                                                                     *
 *  \___/   Product of block size and number of RI functions should not exceed *
 *    |                          total number of processes                     *
 *  O/|                                                                        *
 * /| |                                                                        *
 * / \                                                         mp2_ri_2c.F:892 *
 *******************************************************************************


 ===== Routine Calling Stack ===== 

            7 compute_2c_integrals
            6 get_2c_integrals
            5 mp2_ri_gpw_compute_in
            4 mp2_gpw_main
            3 mp2_main
            2 qs_energies
            1 CP2K

 *******************************************************************************
 *   ___                                                                       *
 *  /   \                                                                      *
 * [ABORT]                                                                     *
 *  \___/   Product of block size and number of RI functions should not exceed *
 *    |                          total number of processes                     *
 *  O/|                                                                        *
 * /| |                                                                        *
 * / \                                                         mp2_ri_2c.F:892 *
 *******************************************************************************


[...]
 * [ABORT]                                                                     *
 *  \___/   Product of block size and number of RI functions should not exceed *
 *    |                          total number of processes                     *
 *  O/|                                                                        *
 * /| |                                                                        *
 * / \                                                         mp2_ri_2c.F:892 *
 *******************************************************************************


 ===== Routine Calling Stack ===== 

            7 compute_2c_integrals
            6 get_2c_integrals
            5 mp2_ri_gpw_compute_in
            4 mp2_gpw_main
            3 mp2_main
            2 qs_energies
            1 CP2K

 *******************************************************************************
 *   ___                                                                       *
 *  /   \                                                                      *
 * [ABORT]                                                                     *
 *  \___/   Product of block size and number of RI functions should not exceed *
 *    |                          total number of processes                     *
 *  O/|                                                                        *
 * /| |                                                                        *
 * / \                                                         mp2_ri_2c.F:892 *
 *******************************************************************************


 ===== Routine Calling Stack ===== 

            7 compute_2c_integrals
            6 get_2c_integrals
            5 mp2_ri_gpw_compute_in
            4 mp2_gpw_main
            3 mp2_main
            2 qs_energies
            1 CP2K

 *******************************************************************************
 *   ___                                                                       *
 *  /   \                                                                      *
 * [ABORT]                                                                     *
 *  \___/   Product of block size and number of RI functions should not exceed *
 *    |                          total number of processes                     *
 *  O/|                                                                        *
 * /| |                                                                        *
 * / \                                                         mp2_ri_2c.F:892 *
 *******************************************************************************


 ===== Routine Calling Stack ===== 

            7 compute_2c_integrals
            6 get_2c_integrals
            5 mp2_ri_gpw_compute_in
            4 mp2_gpw_main
            3 mp2_main
            2 qs_energies
            1 CP2K

 *******************************************************************************
 *   ___                                                                       *
 *  /   \                                                                      *
 * [ABORT]                                                                     *
 *  \___/   Product of block size and number of RI functions should not exceed *
 *    |                          total number of processes                     *
 *  O/|                                                                        *
 * /| |                                                                        *
 * / \                                                         mp2_ri_2c.F:892 *
 *******************************************************************************


 ===== Routine Calling Stack ===== 

            7 compute_2c_integrals
            6 get_2c_integrals
            5 mp2_ri_gpw_compute_in
            4 mp2_gpw_main
            3 mp2_main
            2 qs_energies
            1 CP2K

 *******************************************************************************
 *   ___                                                                       *
 *  /   \                                                                      *
 * [ABORT]                                                                     *
 *  \___/   Product of block size and number of RI functions should not exceed *
 *    |                          total number of processes                     *
 *  O/|                                                                        *
 * /| |                                                                        *
 * / \                                                         mp2_ri_2c.F:892 *
 *******************************************************************************


 ===== Routine Calling Stack ===== 

            7 compute_2c_integrals
            6 get_2c_integrals
            5 mp2_ri_gpw_compute_in
            4 mp2_gpw_main
            3 mp2_main
            2 qs_energies
            1 CP2K

 *******************************************************************************
 *   ___                                                                       *
 *  /   \                                                                      *
 * [ABORT]                                                                     *
 *  \___/   Product of block size and number of RI functions should not exceed *
 *    |                          total number of processes                     *
 *  O/|                                                                        *
 * /| |                                                                        *
 * / \                                                         mp2_ri_2c.F:892 *
 *******************************************************************************


 ===== Routine Calling Stack ===== 

            7 compute_2c_integrals
            6 get_2c_integrals
            5 mp2_ri_gpw_compute_in
            4 mp2_gpw_main
            3 mp2_main
            2 qs_energies
            1 CP2K

 *******************************************************************************
 *   ___                                                                       *
 *  /   \                                                                      *
 * [ABORT]                                                                     *
 *  \___/   Product of block size and number of RI functions should not exceed *
 *    |                          total number of processes                     *
 *  O/|                                                                        *
 * /| |                                                                        *
 * / \                                                         mp2_ri_2c.F:892 *
 *******************************************************************************


 ===== Routine Calling Stack ===== 

            7 compute_2c_integrals
            6 get_2c_integrals
            5 mp2_ri_gpw_compute_in
            4 mp2_gpw_main
            3 mp2_main
            2 qs_energies
            1 CP2K

 *******************************************************************************
 *   ___                                                                       *
 *  /   \                                                                      *
 * [ABORT]                                                                     *
 *  \___/   Product of block size and number of RI functions should not exceed *
 *    |                          total number of processes                     *
 *  O/|                                                                        *
 * /| |                                                                        *
 * / \                                                         mp2_ri_2c.F:892 *
 *******************************************************************************


 ===== Routine Calling Stack ===== 

            7 compute_2c_integrals
            6 get_2c_integrals
            5 mp2_ri_gpw_compute_in
            4 mp2_gpw_main
            3 mp2_main
            2 qs_energies
            1 CP2K

 *******************************************************************************
 *   ___                                                                       *
 *  /   \                                                                      *
 * [ABORT]                                                                     *
 *  \___/   Product of block size and number of RI functions should not exceed *
 *    |                          total number of processes                     *
 *  O/|                                                                        *
 * /| |                                                                        *
 * / \                                                         mp2_ri_2c.F:892 *
 *******************************************************************************


 ===== Routine Calling Stack ===== 

            7 compute_2c_integrals
            6 get_2c_integrals
            5 mp2_ri_gpw_compute_in
            4 mp2_gpw_main
            3 mp2_main
            2 qs_energies
            1 CP2K

 *******************************************************************************
 *   ___                                                                       *
 *  /   \                                                                      *
 * [ABORT]                                                                     *
 *  \___/   Product of block size and number of RI functions should not exceed *
 *    |                          total number of processes                     *
 *  O/|                                                                        *
 * /| |                                                                        *
 * / \                                                         mp2_ri_2c.F:892 *
 *******************************************************************************


 ===== Routine Calling Stack ===== 

            7 compute_2c_integrals
            6 get_2c_integrals
            5 mp2_ri_gpw_compute_in
            4 mp2_gpw_main
            3 mp2_main
            2 qs_energies
            1 CP2K

 *******************************************************************************
 *   ___                                                                       *
 *  /   \                                                                      *
 * [ABORT]                                                                     *
 *  \___/   Product of block size and number of RI functions should not exceed *
 *    |                          total number of processes                     *
 *  O/|                                                                        *
 * /| |                                                                        *
 * / \                                                         mp2_ri_2c.F:892 *
 *******************************************************************************


 ===== Routine Calling Stack ===== 

            7 compute_2c_integrals
            6 get_2c_integrals
            5 mp2_ri_gpw_compute_in
            4 mp2_gpw_main
            3 mp2_main
            2 qs_energies
            1 CP2K

 *******************************************************************************
 *   ___                                                                       *
 *  /   \                                                                      *
 * [ABORT]                                                                     *
 *  \___/   Product of block size and number of RI functions should not exceed *
 *    |                          total number of processes                     *
 *  O/|                                                                        *
 * /| |                                                                        *
 * / \                                                         mp2_ri_2c.F:892 *
 *******************************************************************************


 ===== Routine Calling Stack ===== 

            7 compute_2c_integrals
            6 get_2c_integrals
            5 mp2_ri_gpw_compute_in
            4 mp2_gpw_main
            3 mp2_main
            2 qs_energies
            1 CP2K

 *******************************************************************************
 *   ___                                                                       *
 *  /   \                                                                      *
 * [ABORT]                                                                     *
 *  \___/   Product of block size and number of RI functions should not exceed *
 *    |                          total number of processes                     *
 *  O/|                                                                        *
 * /| |                                                                        *
 * / \                                                         mp2_ri_2c.F:892 *
 *******************************************************************************


 ===== Routine Calling Stack ===== 

            7 compute_2c_integrals
            6 get_2c_integrals
            5 mp2_ri_gpw_compute_in
            4 mp2_gpw_main
            3 mp2_main
            2 qs_energies
            1 CP2K

 *******************************************************************************
 *   ___                                                                       *
 *  /   \                                                                      *
 * [ABORT]                                                                     *
 *  \___/   Product of block size and number of RI functions should not exceed *
 *    |                          total number of processes                     *
 *  O/|                                                                        *
 * /| |                                                                        *
 * / \                                                         mp2_ri_2c.F:892 *
 *******************************************************************************


 ===== Routine Calling Stack ===== 

            7 compute_2c_integrals
            6 get_2c_integrals
            5 mp2_ri_gpw_compute_in
            4 mp2_gpw_main
            3 mp2_main
            2 qs_energies
            1 CP2K

 *******************************************************************************
 *   ___                                                                       *
 *  /   \                                                                      *
 * [ABORT]                                                                     *
 *  \___/   Product of block size and number of RI functions should not exceed *
 *    |                          total number of processes                     *
 *  O/|                                                                        *
 * /| |                                                                        *
 * / \                                                         mp2_ri_2c.F:892 *
 *******************************************************************************


 ===== Routine Calling Stack ===== 

            7 compute_2c_integrals
            6 get_2c_integrals
            5 mp2_ri_gpw_compute_in
            4 mp2_gpw_main
            3 mp2_main
            2 qs_energies
            1 CP2K
 *
 *******************************************************************************


 ===== Routine Calling Stack ===== 

            7 compute_2c_integrals
            6 get_2c_integrals
            5 mp2_ri_gpw_compute_in
            4 mp2_gpw_main
            3 mp2_main
            2 qs_energies
            1 CP2K

 *******************************************************************************
 *   ___                                                                       *
 *  /   \                                                                      *
 * [ABORT]                                                                     *
 *  \___/   Product of block size and number of RI functions should not exceed *
 *    |                          total number of processes                     *
 *  O/|                                                                        *
 * /| |                                                                        *
 * / \                                                         mp2_ri_2c.F:892 *
 *******************************************************************************


 ===== Routine Calling Stack ===== 

            7 compute_2c_integrals
            6 get_2c_integrals
            5 mp2_ri_gpw_compute_in
            4 mp2_gpw_main
            3 mp2_main
            2 qs_energies
            1 CP2K

 *******************************************************************************
 *   ___                                                                       *
 *  /   \                                                                      *
 * [ABORT]                                                                     *
 *  \___/   Product of block size and number of RI functions should not exceed *
 *    |                          total number of processes                     *
 *  O/|                                                                        *
 * /| |                                                                        *
 * / \                                                         mp2_ri_2c.F:892 *
 *******************************************************************************


 ===== Routine Calling Stack ===== 

            7 compute_2c_integrals
            6 get_2c_integrals
            5 mp2_ri_gpw_compute_in
            4 mp2_gpw_main
            3 mp2_main
            2 qs_energies
            1 CP2K

 *******************************************************************************
 *   ___                                                                       *
 *  /   \                                                                      *
 * [ABORT]                                                                     *
 *  \___/   Product of block size and number of RI functions should not exceed *
 *    |                          total number of processes                     *
 *  O/|                                                                        *
 * /| |                                                                        *
 * / \                                                         mp2_ri_2c.F:892 *
 *******************************************************************************


 ===== Routine Calling Stack ===== 

            7 compute_2c_integrals
            6 get_2c_integrals
            5 mp2_ri_gpw_compute_in
            4 mp2_gpw_main
            3 mp2_main
            2 qs_energies
            1 CP2K

 *******************************************************************************
 *   ___                                                                       *
 *  /   \                                                                      *
 * [ABORT]                                                                     *
 *  \___/   Product of block size and number of RI functions should not exceed *
 *    |                          total number of processes                     *
 *  O/|                                                                        *
 * /| |                                                                        *
 * / \                                                         mp2_ri_2c.F:892 *
 *******************************************************************************


 ===== Routine Calling Stack ===== 

            7 compute_2c_integrals
            6 get_2c_integrals
            5 mp2_ri_gpw_compute_in
            4 mp2_gpw_main
            3 mp2_main
            2 qs_energies
            1 CP2K
