 DBCSR| CPU Multiplication driver                                           BLAS (U)
 DBCSR| Multrec recursion limit                                              512 (U)
 DBCSR| Multiplication stack size                                           1000 (D)
 DBCSR| Maximum elements for images                                    UNLIMITED (U)
 DBCSR| Multiplicative factor virtual images                                   1 (U)
 DBCSR| Use multiplication densification                                       T (D)
 DBCSR| Multiplication size stacks                                             3 (U)
 DBCSR| Use memory pool for CPU allocation                                     F (U)
 DBCSR| Number of 3D layers                                               SINGLE (U)
 DBCSR| Use MPI memory allocation                                              F (U)
 DBCSR| Use RMA algorithm                                                      F (U)
 DBCSR| Use Communication thread                                               T (U)
 DBCSR| Communication thread load                                             75 (D)
 DBCSR| MPI: My process id                                                     0
 DBCSR| MPI: Number of processes                                              24
 DBCSR| OMP: Current number of threads                                         4
 DBCSR| OMP: Max number of threads                                             4
 DBCSR| Split modifier for TAS multiplication algorithm                  1.0E+00 (U)


  **** **** ******  **  PROGRAM STARTED AT               2025-03-11 07:09:45.524
 ***** ** ***  *** **   PROGRAM STARTED ON                          i01r03c01s01
 **    ****   ******    PROGRAM STARTED BY                               di38fab
 ***** **    ** ** **   PROGRAM PROCESS ID                               2730026
  **** **  *******  **  PROGRAM STARTED IN /hppfs/scratch/04/di38fab/05_MOL/W4-1
                                           1+ALK/bh/aug-cc-pVQZ

 CP2K| version string:                 CP2K version 2025.1 (Development Version)
 CP2K| source code revision number:                                  git:d2e611a
 CP2K| cp2kflags: omp libint fftw3 libxc parallel scalapack max_contr=4         
 CP2K| is freely available from                            https://www.cp2k.org/
 CP2K| Program compiled at                       Thu 06 Mar 2025 05:09:20 PM CET
 CP2K| Program compiled on                                               login02
 CP2K| Program compiled for                                        Supermuc-foss
 CP2K| Data directory path                  /hppfs/work/pn36zo/di38fab/cp2k/data
 CP2K| Input file name                                                    GW.inp

 GLOBAL| Force Environment number                                              1
 GLOBAL| Basis set file name            /hppfs/scratch/04/di38fab/04_TMD/BASIS_A
 GLOBAL| Potential file name            /hppfs/work/pn36zo/di38fab/cp2k/data/ALL
 GLOBAL| MM Potential file name                                     MM_POTENTIAL
 GLOBAL| Coordinate file name                                      __STD_INPUT__
 GLOBAL| Method name                                                        CP2K
 GLOBAL| Project name                                                       MoS2
 GLOBAL| Run type                                                         ENERGY
 GLOBAL| FFT library                                                       FFTW3
 GLOBAL| Diagonalization library                                       ScaLAPACK
 GLOBAL| DGEMM library                                                      BLAS
 GLOBAL| Orthonormality check for eigenvectors                          DISABLED
 GLOBAL| Matrix multiplication library                                 ScaLAPACK
 GLOBAL| All-to-all communication in single precision                          F
 GLOBAL| FFTs using library dependent lengths                                  F
 GLOBAL| Grid backend                                                       AUTO
 GLOBAL| Global print level                                               MEDIUM
 GLOBAL| MPI I/O enabled                                                       T
 GLOBAL| Total number of message passing processes                            24
 GLOBAL| Number of threads for this process                                    4
 GLOBAL| This output is from process                                           0
 GLOBAL| OpenMP stack size per thread (OMP_STACKSIZE)                    default
 GLOBAL| CPU model name             Intel(R) Xeon(R) Platinum 8174 CPU @ 3.10GHz

 MEMORY| system memory details [Kb]
 MEMORY|                        rank 0           min           max       average
 MEMORY| MemTotal             98436708      98436664      98436708      98436686
 MEMORY| MemFree              83859836      83859836      83874396      83867116
 MEMORY| Buffers                     0             0             0             0
 MEMORY| Cached                2398280       2398280       2431640       2414960
 MEMORY| Slab                  1214364       1208844       1214364       1211604
 MEMORY| SReclaimable           266912        266912        270304        268608
 MEMORY| MemLikelyFree        86525028      86525028      86576340      86550684


 *** Fundamental physical constants (SI units) ***

 *** Literature: B. J. Mohr and B. N. Taylor,
 ***             CODATA recommended values of the fundamental physical
 ***             constants: 2006, Web Version 5.1
 ***             http://physics.nist.gov/constants

 Speed of light in vacuum [m/s]                             2.99792458000000E+08
 Magnetic constant or permeability of vacuum [N/A**2]       1.25663706143592E-06
 Electric constant or permittivity of vacuum [F/m]          8.85418781762039E-12
 Planck constant (h) [J*s]                                  6.62606896000000E-34
 Planck constant (h-bar) [J*s]                              1.05457162825177E-34
 Elementary charge [C]                                      1.60217648700000E-19
 Electron mass [kg]                                         9.10938215000000E-31
 Electron g factor [ ]                                     -2.00231930436220E+00
 Proton mass [kg]                                           1.67262163700000E-27
 Fine-structure constant                                    7.29735253760000E-03
 Rydberg constant [1/m]                                     1.09737315685270E+07
 Avogadro constant [1/mol]                                  6.02214179000000E+23
 Boltzmann constant [J/K]                                   1.38065040000000E-23
 Atomic mass unit [kg]                                      1.66053878200000E-27
 Bohr radius [m]                                            5.29177208590000E-11

 *** Conversion factors ***

 [u] -> [a.u.]                                              1.82288848426455E+03
 [Angstrom] -> [Bohr] = [a.u.]                              1.88972613288564E+00
 [a.u.] = [Bohr] -> [Angstrom]                              5.29177208590000E-01
 [a.u.] -> [s]                                              2.41888432650478E-17
 [a.u.] -> [fs]                                             2.41888432650478E-02
 [a.u.] -> [J]                                              4.35974393937059E-18
 [a.u.] -> [N]                                              8.23872205491840E-08
 [a.u.] -> [K]                                              3.15774647902944E+05
 [a.u.] -> [kJ/mol]                                         2.62549961709828E+03
 [a.u.] -> [kcal/mol]                                       6.27509468713739E+02
 [a.u.] -> [Pa]                                             2.94210107994716E+13
 [a.u.] -> [bar]                                            2.94210107994716E+08
 [a.u.] -> [atm]                                            2.90362800883016E+08
 [a.u.] -> [eV]                                             2.72113838565563E+01
 [a.u.] -> [Hz]                                             6.57968392072181E+15
 [a.u.] -> [1/cm] (wave numbers)                            2.19474631370540E+05
 [a.u./Bohr**2] -> [1/cm]                                   5.14048714338585E+03
 

 CELL_TOP| Volume [angstrom^3]:                                     27000.000000
 CELL_TOP| Vector a [angstrom    30.000     0.000     0.000   |a| =    30.000000
 CELL_TOP| Vector b [angstrom     0.000    30.000     0.000   |b| =    30.000000
 CELL_TOP| Vector c [angstrom     0.000     0.000    30.000   |c| =    30.000000
 CELL_TOP| Angle (b,c), alpha [degree]:                                90.000000
 CELL_TOP| Angle (a,c), beta  [degree]:                                90.000000
 CELL_TOP| Angle (a,b), gamma [degree]:                                90.000000
 CELL_TOP| Numerically orthorhombic:                                         YES
 CELL_TOP| Periodicity                                                      NONE

 GENERATE|  Preliminary Number of Bonds generated:                             0
 GENERATE|  Achieved consistency in connectivity generation.

 CELL| Volume [angstrom^3]:                                         27000.000000
 CELL| Vector a [angstrom]:      30.000     0.000     0.000   |a| =    30.000000
 CELL| Vector b [angstrom]:       0.000    30.000     0.000   |b| =    30.000000
 CELL| Vector c [angstrom]:       0.000     0.000    30.000   |c| =    30.000000
 CELL| Angle (b,c), alpha [degree]:                                    90.000000
 CELL| Angle (a,c), beta  [degree]:                                    90.000000
 CELL| Angle (a,b), gamma [degree]:                                    90.000000
 CELL| Numerically orthorhombic:                                             YES
 CELL| Periodicity                                                          NONE

 CELL_REF| Volume [angstrom^3]:                                     27000.000000
 CELL_REF| Vector a [angstrom    30.000     0.000     0.000   |a| =    30.000000
 CELL_REF| Vector b [angstrom     0.000    30.000     0.000   |b| =    30.000000
 CELL_REF| Vector c [angstrom     0.000     0.000    30.000   |c| =    30.000000
 CELL_REF| Angle (b,c), alpha [degree]:                                90.000000
 CELL_REF| Angle (a,c), beta  [degree]:                                90.000000
 CELL_REF| Angle (a,b), gamma [degree]:                                90.000000
 CELL_REF| Numerically orthorhombic:                                         YES
 CELL_REF| Periodicity                                                      NONE

 *******************************************************************************
 *******************************************************************************
 **                                                                           **
 **     #####                         ##              ##                      **
 **    ##   ##            ##          ##              ##                      **
 **   ##     ##                       ##            ######                    **
 **   ##     ##  ##   ##  ##   #####  ##  ##   ####   ##    #####    #####    **
 **   ##     ##  ##   ##  ##  ##      ## ##   ##      ##   ##   ##  ##   ##   **
 **   ##  ## ##  ##   ##  ##  ##      ####     ###    ##   ######   ######    **
 **    ##  ###   ##   ##  ##  ##      ## ##      ##   ##   ##       ##        **
 **     #######   #####   ##   #####  ##  ##  ####    ##    #####   ##        **
 **           ##                                                    ##        **
 **                                                                           **
 **                                                ... make the atoms dance   **
 **                                                                           **
 **            Copyright (C) by CP2K developers group (2000-2025)             **
 **                      J. Chem. Phys. 152, 194103 (2020)                    **
 **                                                                           **
 *******************************************************************************

 DFT| Spin restricted Kohn-Sham (RKS) calculation                            RKS
 DFT| Multiplicity                                                             1
 DFT| Number of spin states                                                    1
 DFT| Charge                                                                   0
 DFT| Self-interaction correction (SIC)                                       NO
 DFT| Cutoffs: density                                              1.000000E-10
 DFT|          gradient                                             1.000000E-10
 DFT|          tau                                                  1.000000E-10
 DFT|          cutoff_smoothing_range                               0.000000E+00
 DFT| XC density smoothing                                                  NONE
 DFT| XC derivatives                                                          PW

 FUNCTIONAL| PBE:
 FUNCTIONAL| J.P.Perdew, K.Burke, M.Ernzerhof, Phys. Rev. Letter, vol. 77, n 18,
 FUNCTIONAL|  pp. 3865-3868, (1996)sx=0.750sc=1.000{spin unpolarized}           


 QS| Method:                                                                GAPW
 QS| Density plane wave grid type                        NON-SPHERICAL FULLSPACE
 QS| Number of grid levels:                                                    4
 QS| Density cutoff [a.u.]:                                                250.0
 QS| Multi grid cutoff [a.u.]: 1) grid level                               250.0
 QS|                           2) grid level                                83.3
 QS|                           3) grid level                                27.8
 QS|                           4) grid level                                 9.3
 QS| Grid level progression factor:                                          3.0
 QS| Relative density cutoff [a.u.]:                                        50.0
 QS| Interaction thresholds: eps_pgf_orb:                                1.0E-12
 QS|                         eps_filter_matrix:                          0.0E+00
 QS|                         eps_core_charge:                            1.0E-14
 QS|                         eps_rho_gspace:                             1.0E-12
 QS|                         eps_rho_rspace:                             1.0E-12
 QS|                         eps_gvg_rspace:                             1.0E-06
 QS|                         eps_ppl:                                    1.0E-02
 QS|                         eps_ppnl:                                   1.0E-08
 QS| GAPW|      One center basis from orbital basis primitives
 QS| GAPW|                   eps_fit:                                    1.0E-04
 QS| GAPW|                   eps_iso:                                    1.0E-12
 QS| GAPW|                   eps_svd:                                    1.0E-08
 QS| GAPW|                   eps_cpc:                                    1.0E-12
 QS| GAPW|   atom-r-grid: quadrature:                                     GC_LOG
 QS| GAPW|      atom-s-grid:  max l :                                          8
 QS| GAPW|      max_l_rho0 :                                                   2


 ATOMIC KIND INFORMATION

  1. Atomic kind: B                                     Number of atoms:       1

     Orbital Basis Set                                               aug-cc-pVQZ

       Number of orbital shell sets:                                          10
       Number of orbital shells:                                              20
       Number of primitive Cartesian functions:                               29
       Number of Cartesian basis functions:                                  105
       Number of spherical basis functions:                                   80
       Norm type:                                                              2

       Normalised Cartesian orbitals:

                        Set   Shell   Orbital            Exponent    Coefficient

                          1       1    1px               0.018780       0.009910
                          1       1    1py               0.018780       0.009910
                          1       1    1pz               0.018780       0.009910

                          2       1    1s                0.027210       0.047748

                          3       1    1dx2              0.046600       0.007693
                          3       1    1dxy              0.046600       0.013324
                          3       1    1dxz              0.046600       0.013324
                          3       1    1dy2              0.046600       0.007693
                          3       1    1dyz              0.046600       0.013324
                          3       1    1dz2              0.046600       0.007693

                          4       1    1px              22.260000       0.000000
                                                         5.058000       0.000000
                                                         1.487000       0.000000
                                                         0.507100       0.609968
                                                         0.181200       0.000000
                                                         0.064630       0.000000
                          4       1    1py              22.260000       0.000000
                                                         5.058000       0.000000
                                                         1.487000       0.000000
                                                         0.507100       0.609968
                                                         0.181200       0.000000
                                                         0.064630       0.000000
                          4       1    1pz              22.260000       0.000000
                                                         5.058000       0.000000
                                                         1.487000       0.000000
                                                         0.507100       0.609968
                                                         0.181200       0.000000
                                                         0.064630       0.000000

                          4       2    2px              22.260000       0.351148
                                                         5.058000       0.359030
                                                         1.487000       0.309695
                                                         0.507100       0.202398
                                                         0.181200       0.079550
                                                         0.064630       0.011983
                          4       2    2py              22.260000       0.351148
                                                         5.058000       0.359030
                                                         1.487000       0.309695
                                                         0.507100       0.202398
                                                         0.181200       0.079550
                                                         0.064630       0.011983
                          4       2    2pz              22.260000       0.351148
                                                         5.058000       0.359030
                                                         1.487000       0.309695
                                                         0.507100       0.202398
                                                         0.181200       0.079550
                                                         0.064630       0.011983

                          4       3    3px              22.260000       0.000000
                                                         5.058000       0.000000
                                                         1.487000       0.000000
                                                         0.507100       0.000000
                                                         0.181200       0.168515
                                                         0.064630       0.000000
                          4       3    3py              22.260000       0.000000
                                                         5.058000       0.000000
                                                         1.487000       0.000000
                                                         0.507100       0.000000
                                                         0.181200       0.168515
                                                         0.064630       0.000000
                          4       3    3pz              22.260000       0.000000
                                                         5.058000       0.000000
                                                         1.487000       0.000000
                                                         0.507100       0.000000
                                                         0.181200       0.168515
                                                         0.064630       0.000000

                          4       4    4px              22.260000       0.000000
                                                         5.058000       0.000000
                                                         1.487000       0.000000
                                                         0.507100       0.000000
                                                         0.181200       0.000000
                                                         0.064630       0.046450
                          4       4    4py              22.260000       0.000000
                                                         5.058000       0.000000
                                                         1.487000       0.000000
                                                         0.507100       0.000000
                                                         0.181200       0.000000
                                                         0.064630       0.046450
                          4       4    4pz              22.260000       0.000000
                                                         5.058000       0.000000
                                                         1.487000       0.000000
                                                         0.507100       0.000000
                                                         0.181200       0.000000
                                                         0.064630       0.046450

                          5       1    1s            23870.000000       0.120443
                                                      3575.000000       0.226373
                                                       812.800000       0.390571
                                                       229.700000       0.628627
                                                        74.690000       0.931356
                                                        26.810000       1.203331
                                                        10.320000       1.234931
                                                         4.178000       0.840442
                                                         1.727000       0.241946
                                                         0.470400       0.006237
                                                         0.189600      -0.000810
                                                         0.073940       0.000114

                          5       2    2s            23870.000000       0.000000
                                                      3575.000000       0.000000
                                                       812.800000       0.000000
                                                       229.700000       0.000000
                                                        74.690000       0.000000
                                                        26.810000       0.000000
                                                        10.320000       0.000000
                                                         4.178000       0.000000
                                                         1.727000       0.000000
                                                         0.470400       0.404819
                                                         0.189600       0.000000
                                                         0.073940       0.000000

                          5       3    3s            23870.000000       0.000000
                                                      3575.000000       0.000000
                                                       812.800000       0.000000
                                                       229.700000       0.000000
                                                        74.690000       0.000000
                                                        26.810000       0.000000
                                                        10.320000       0.000000
                                                         4.178000       0.000000
                                                         1.727000       0.000000
                                                         0.470400       0.000000
                                                         0.189600       0.204781
                                                         0.073940       0.000000

                          5       4    4s            23870.000000      -0.024636
                                                      3575.000000      -0.045802
                                                       812.800000      -0.078657
                                                       229.700000      -0.128804
                                                        74.690000      -0.191595
                                                        26.810000      -0.263377
                                                        10.320000      -0.291408
                                                         4.178000      -0.275137
                                                         1.727000      -0.132141
                                                         0.470400       0.105989
                                                         0.189600       0.120137
                                                         0.073940       0.029357

                          5       5    5s            23870.000000       0.000000
                                                      3575.000000       0.000000
                                                       812.800000       0.000000
                                                       229.700000       0.000000
                                                        74.690000       0.000000
                                                        26.810000       0.000000
                                                        10.320000       0.000000
                                                         4.178000       0.000000
                                                         1.727000       0.000000
                                                         0.470400       0.000000
                                                         0.189600       0.000000
                                                         0.073940       0.101058

                          6       1    1fx3              0.113000       0.010899
                          6       1    1fx2y             0.113000       0.024371
                          6       1    1fx2z             0.113000       0.024371
                          6       1    1fxy2             0.113000       0.024371
                          6       1    1fxyz             0.113000       0.042211
                          6       1    1fxz2             0.113000       0.024371
                          6       1    1fy3              0.113000       0.010899
                          6       1    1fy2z             0.113000       0.024371
                          6       1    1fyz2             0.113000       0.024371
                          6       1    1fz3              0.113000       0.010899

                          7       1    1dx2              1.110000       1.975717
                                                         0.402000       0.000000
                                                         0.145000       0.000000
                          7       1    1dxy              1.110000       3.422042
                                                         0.402000       0.000000
                                                         0.145000       0.000000
                          7       1    1dxz              1.110000       3.422042
                                                         0.402000       0.000000
                                                         0.145000       0.000000
                          7       1    1dy2              1.110000       1.975717
                                                         0.402000       0.000000
                                                         0.145000       0.000000
                          7       1    1dyz              1.110000       3.422042
                                                         0.402000       0.000000
                                                         0.145000       0.000000
                          7       1    1dz2              1.110000       1.975717
                                                         0.402000       0.000000
                                                         0.145000       0.000000

                          7       2    2dx2              1.110000       0.000000
                                                         0.402000       0.334045
                                                         0.145000       0.000000
                          7       2    2dxy              1.110000       0.000000
                                                         0.402000       0.578583
                                                         0.145000       0.000000
                          7       2    2dxz              1.110000       0.000000
                                                         0.402000       0.578583
                                                         0.145000       0.000000
                          7       2    2dy2              1.110000       0.000000
                                                         0.402000       0.334045
                                                         0.145000       0.000000
                          7       2    2dyz              1.110000       0.000000
                                                         0.402000       0.578583
                                                         0.145000       0.000000
                          7       2    2dz2              1.110000       0.000000
                                                         0.402000       0.334045
                                                         0.145000       0.000000

                          7       3    3dx2              1.110000       0.000000
                                                         0.402000       0.000000
                                                         0.145000       0.056079
                          7       3    3dxy              1.110000       0.000000
                                                         0.402000       0.000000
                                                         0.145000       0.097132
                          7       3    3dxz              1.110000       0.000000
                                                         0.402000       0.000000
                                                         0.145000       0.097132
                          7       3    3dy2              1.110000       0.000000
                                                         0.402000       0.000000
                                                         0.145000       0.056079
                          7       3    3dyz              1.110000       0.000000
                                                         0.402000       0.000000
                                                         0.145000       0.097132
                          7       3    3dz2              1.110000       0.000000
                                                         0.402000       0.000000
                                                         0.145000       0.056079

                          8       1    1gx4              0.273000       0.031324
                          8       1    1gx3y             0.273000       0.082877
                          8       1    1gx3z             0.273000       0.082877
                          8       1    1gx2y2            0.273000       0.106993
                          8       1    1gx2yz            0.273000       0.185318
                          8       1    1gx2z2            0.273000       0.106993
                          8       1    1gxy3             0.273000       0.082877
                          8       1    1gxy2z            0.273000       0.185318
                          8       1    1gxyz2            0.273000       0.185318
                          8       1    1gxz3             0.273000       0.082877
                          8       1    1gy4              0.273000       0.031324
                          8       1    1gy3z             0.273000       0.082877
                          8       1    1gy2z2            0.273000       0.106993
                          8       1    1gyz3             0.273000       0.082877
                          8       1    1gz4              0.273000       0.031324

                          9       1    1fx3              0.882000       1.109836
                                                         0.311000       0.000000
                          9       1    1fx2y             0.882000       2.481669
                                                         0.311000       0.000000
                          9       1    1fx2z             0.882000       2.481669
                                                         0.311000       0.000000
                          9       1    1fxy2             0.882000       2.481669
                                                         0.311000       0.000000
                          9       1    1fxyz             0.882000       4.298376
                                                         0.311000       0.000000
                          9       1    1fxz2             0.882000       2.481669
                                                         0.311000       0.000000
                          9       1    1fy3              0.882000       1.109836
                                                         0.311000       0.000000
                          9       1    1fy2z             0.882000       2.481669
                                                         0.311000       0.000000
                          9       1    1fyz2             0.882000       2.481669
                                                         0.311000       0.000000
                          9       1    1fz3              0.882000       1.109836
                                                         0.311000       0.000000

                          9       2    2fx3              0.882000       0.000000
                                                         0.311000       0.106332
                          9       2    2fx2y             0.882000       0.000000
                                                         0.311000       0.237766
                          9       2    2fx2z             0.882000       0.000000
                                                         0.311000       0.237766
                          9       2    2fxy2             0.882000       0.000000
                                                         0.311000       0.237766
                          9       2    2fxyz             0.882000       0.000000
                                                         0.311000       0.411823
                          9       2    2fxz2             0.882000       0.000000
                                                         0.311000       0.237766
                          9       2    2fy3              0.882000       0.000000
                                                         0.311000       0.106332
                          9       2    2fy2z             0.882000       0.000000
                                                         0.311000       0.237766
                          9       2    2fyz2             0.882000       0.000000
                                                         0.311000       0.237766
                          9       2    2fz3              0.882000       0.000000
                                                         0.311000       0.106332

                         10       1    1gx4              0.673000       0.374522
                         10       1    1gx3y             0.673000       0.990891
                         10       1    1gx3z             0.673000       0.990891
                         10       1    1gx2y2            0.673000       1.279235
                         10       1    1gx2yz            0.673000       2.215700
                         10       1    1gx2z2            0.673000       1.279235
                         10       1    1gxy3             0.673000       0.990891
                         10       1    1gxy2z            0.673000       2.215700
                         10       1    1gxyz2            0.673000       2.215700
                         10       1    1gxz3             0.673000       0.990891
                         10       1    1gy4              0.673000       0.374522
                         10       1    1gy3z             0.673000       0.990891
                         10       1    1gy2z2            0.673000       1.279235
                         10       1    1gyz3             0.673000       0.990891
                         10       1    1gz4              0.673000       0.374522

     RI Auxiliary Basis Set                                    aug-cc-pVQZ-OPTRI

       Number of orbital shell sets:                                          19
       Number of orbital shells:                                              19
       Number of primitive Cartesian functions:                               19
       Number of Cartesian basis functions:                                  124
       Number of spherical basis functions:                                   89
       Norm type:                                                              2

       Normalised Cartesian orbitals:

                        Set   Shell   Orbital            Exponent    Coefficient

                          1       1    1px               0.028181       0.016458
                          1       1    1py               0.028181       0.016458
                          1       1    1pz               0.028181       0.016458

                          2       1    1s                0.047837       0.072901

                          3       1    1dx2              0.071125       0.016123
                          3       1    1dxy              0.071125       0.027926
                          3       1    1dxz              0.071125       0.027926
                          3       1    1dy2              0.071125       0.016123
                          3       1    1dyz              0.071125       0.027926
                          3       1    1dz2              0.071125       0.016123

                          4       1    1px               0.096867       0.077030
                          4       1    1py               0.096867       0.077030
                          4       1    1pz               0.096867       0.077030

                          5       1    1s                0.122949       0.147980

                          6       1    1fx3              0.207583       0.042819
                          6       1    1fx2y             0.207583       0.095746
                          6       1    1fx2z             0.207583       0.095746
                          6       1    1fxy2             0.207583       0.095746
                          6       1    1fxyz             0.207583       0.165837
                          6       1    1fxz2             0.207583       0.095746
                          6       1    1fy3              0.207583       0.042819
                          6       1    1fy2z             0.207583       0.095746
                          6       1    1fyz2             0.207583       0.095746
                          6       1    1fz3              0.207583       0.042819

                          7       1    1dx2              0.259143       0.154919
                          7       1    1dxy              0.259143       0.268327
                          7       1    1dxz              0.259143       0.268327
                          7       1    1dy2              0.259143       0.154919
                          7       1    1dyz              0.259143       0.268327
                          7       1    1dz2              0.259143       0.154919

                          8       1    1s                0.313912       0.298893

                          9       1    1px               0.336201       0.364913
                          9       1    1py               0.336201       0.364913
                          9       1    1pz               0.336201       0.364913

                         10       1    1gx4              0.449602       0.123513
                         10       1    1gx3y             0.449602       0.326785
                         10       1    1gx3z             0.449602       0.326785
                         10       1    1gx2y2            0.449602       0.421878
                         10       1    1gx2yz            0.449602       0.730713
                         10       1    1gx2z2            0.449602       0.421878
                         10       1    1gxy3             0.449602       0.326785
                         10       1    1gxy2z            0.449602       0.730713
                         10       1    1gxyz2            0.449602       0.730713
                         10       1    1gxz3             0.449602       0.326785
                         10       1    1gy4              0.449602       0.123513
                         10       1    1gy3z             0.449602       0.326785
                         10       1    1gy2z2            0.449602       0.421878
                         10       1    1gyz3             0.449602       0.326785
                         10       1    1gz4              0.449602       0.123513

                         11       1    1fx3              0.588390       0.446377
                         11       1    1fx2y             0.588390       0.998128
                         11       1    1fx2z             0.588390       0.998128
                         11       1    1fxy2             0.588390       0.998128
                         11       1    1fxyz             0.588390       1.728809
                         11       1    1fxz2             0.588390       0.998128
                         11       1    1fy3              0.588390       0.446377
                         11       1    1fy2z             0.588390       0.998128
                         11       1    1fyz2             0.588390       0.998128
                         11       1    1fz3              0.588390       0.446377

                         12       1    1dx2              0.602361       0.677890
                         12       1    1dxy              0.602361       1.174139
                         12       1    1dxz              0.602361       1.174139
                         12       1    1dy2              0.602361       0.677890
                         12       1    1dyz              0.602361       1.174139
                         12       1    1dz2              0.602361       0.677890

                         13       1    1hx5              0.771535       0.319338
                         13       1    1hx4y             0.771535       0.958013
                         13       1    1hx4z             0.771535       0.958013
                         13       1    1hx3y2            0.771535       1.463388
                         13       1    1hx3yz            0.771535       2.534663
                         13       1    1hx3z2            0.771535       1.463388
                         13       1    1hx2y3            0.771535       1.463388
                         13       1    1hx2y2z           0.771535       3.272236
                         13       1    1hx2yz2           0.771535       3.272236
                         13       1    1hx2z3            0.771535       1.463388
                         13       1    1hxy4             0.771535       0.958013
                         13       1    1hxy3z            0.771535       2.534663
                         13       1    1hxy2z2           0.771535       3.272236
                         13       1    1hxyz3            0.771535       2.534663
                         13       1    1hxz4             0.771535       0.958013
                         13       1    1hy5              0.771535       0.319338
                         13       1    1hy4z             0.771535       0.958013
                         13       1    1hy3z2            0.771535       1.463388
                         13       1    1hy2z3            0.771535       1.463388
                         13       1    1hyz4             0.771535       0.958013
                         13       1    1hz5              0.771535       0.319338

                         14       1    1px               1.113894       1.631154
                         14       1    1py               1.113894       1.631154
                         14       1    1pz               1.113894       1.631154

                         15       1    1gx4              1.174695       1.732724
                         15       1    1gx3y             1.174695       4.584358
                         15       1    1gx3z             1.174695       4.584358
                         15       1    1gx2y2            1.174695       5.918381
                         15       1    1gx2yz            1.174695      10.250936
                         15       1    1gx2z2            1.174695       5.918381
                         15       1    1gxy3             1.174695       4.584358
                         15       1    1gxy2z            1.174695      10.250936
                         15       1    1gxyz2            1.174695      10.250936
                         15       1    1gxz3             1.174695       4.584358
                         15       1    1gy4              1.174695       1.732724
                         15       1    1gy3z             1.174695       4.584358
                         15       1    1gy2z2            1.174695       5.918381
                         15       1    1gyz3             1.174695       4.584358
                         15       1    1gz4              1.174695       1.732724

                         16       1    1s                1.254695       0.844916

                         17       1    1dx2              1.661603       4.002508
                         17       1    1dxy              1.661603       6.932547
                         17       1    1dxz              1.661603       6.932547
                         17       1    1dy2              1.661603       4.002508
                         17       1    1dyz              1.661603       6.932547
                         17       1    1dz2              1.661603       4.002508

                         18       1    1fx3              2.320429       9.783249
                         18       1    1fx2y             2.320429      21.876009
                         18       1    1fx2z             2.320429      21.876009
                         18       1    1fxy2             2.320429      21.876009
                         18       1    1fxyz             2.320429      37.890359
                         18       1    1fxz2             2.320429      21.876009
                         18       1    1fy3              2.320429       9.783249
                         18       1    1fy2z             2.320429      21.876009
                         18       1    1fyz2             2.320429      21.876009
                         18       1    1fz3              2.320429       9.783249

                         19       1    1px               2.510235       4.503841
                         19       1    1py               2.510235       4.503841
                         19       1    1pz               2.510235       4.503841

       Atomic covalent radius [Angstrom]:                                  0.820

       Atomic van der Waals radius [Angstrom]:                             1.920

     The atoms of this atomic kind are PAW atoms (GAPW):
       Hard Gaussian function radius:                                      1.512
       Rho0 radius:                                                        1.512
       Maximum GTO radius used for PAW projector construction:            24.566

     GAPW Soft Basis Set                                        aug-cc-pVQZ_soft

       Number of orbital shell sets:                                          10
       Number of orbital shells:                                              20
       Number of primitive Cartesian functions:                               19
       Number of Cartesian basis functions:                                  105
       Number of spherical basis functions:                                   80
       Norm type:                                                              2

       Normalised Cartesian orbitals:

                        Set   Shell   Orbital            Exponent    Coefficient

                          1       1    1px               0.018780       0.009910
                          1       1    1py               0.018780       0.009910
                          1       1    1pz               0.018780       0.009910

                          2       1    1s                0.027210       0.047748

                          3       1    1dx2              0.046600       0.007693
                          3       1    1dxy              0.046600       0.013324
                          3       1    1dxz              0.046600       0.013324
                          3       1    1dy2              0.046600       0.007693
                          3       1    1dyz              0.046600       0.013324
                          3       1    1dz2              0.046600       0.007693

                          4       1    1px               1.487000       0.000000
                                                         0.507100       0.609968
                                                         0.181200       0.000000
                                                         0.064630       0.000000
                          4       1    1py               1.487000       0.000000
                                                         0.507100       0.609968
                                                         0.181200       0.000000
                                                         0.064630       0.000000
                          4       1    1pz               1.487000       0.000000
                                                         0.507100       0.609968
                                                         0.181200       0.000000
                                                         0.064630       0.000000

                          4       2    2px               1.487000       0.309695
                                                         0.507100       0.202398
                                                         0.181200       0.079550
                                                         0.064630       0.011983
                          4       2    2py               1.487000       0.309695
                                                         0.507100       0.202398
                                                         0.181200       0.079550
                                                         0.064630       0.011983
                          4       2    2pz               1.487000       0.309695
                                                         0.507100       0.202398
                                                         0.181200       0.079550
                                                         0.064630       0.011983

                          4       3    3px               1.487000       0.000000
                                                         0.507100       0.000000
                                                         0.181200       0.168515
                                                         0.064630       0.000000
                          4       3    3py               1.487000       0.000000
                                                         0.507100       0.000000
                                                         0.181200       0.168515
                                                         0.064630       0.000000
                          4       3    3pz               1.487000       0.000000
                                                         0.507100       0.000000
                                                         0.181200       0.168515
                                                         0.064630       0.000000

                          4       4    4px               1.487000       0.000000
                                                         0.507100       0.000000
                                                         0.181200       0.000000
                                                         0.064630       0.046450
                          4       4    4py               1.487000       0.000000
                                                         0.507100       0.000000
                                                         0.181200       0.000000
                                                         0.064630       0.046450
                          4       4    4pz               1.487000       0.000000
                                                         0.507100       0.000000
                                                         0.181200       0.000000
                                                         0.064630       0.046450

                          5       1    1s                1.727000       0.241946
                                                         0.470400       0.006237
                                                         0.189600      -0.000810
                                                         0.073940       0.000114

                          5       2    2s                1.727000       0.000000
                                                         0.470400       0.404819
                                                         0.189600       0.000000
                                                         0.073940       0.000000

                          5       3    3s                1.727000       0.000000
                                                         0.470400       0.000000
                                                         0.189600       0.204781
                                                         0.073940       0.000000

                          5       4    4s                1.727000      -0.132141
                                                         0.470400       0.105989
                                                         0.189600       0.120137
                                                         0.073940       0.029357

                          5       5    5s                1.727000       0.000000
                                                         0.470400       0.000000
                                                         0.189600       0.000000
                                                         0.073940       0.101058

                          6       1    1fx3              0.113000       0.010899
                          6       1    1fx2y             0.113000       0.024371
                          6       1    1fx2z             0.113000       0.024371
                          6       1    1fxy2             0.113000       0.024371
                          6       1    1fxyz             0.113000       0.042211
                          6       1    1fxz2             0.113000       0.024371
                          6       1    1fy3              0.113000       0.010899
                          6       1    1fy2z             0.113000       0.024371
                          6       1    1fyz2             0.113000       0.024371
                          6       1    1fz3              0.113000       0.010899

                          7       1    1dx2              1.110000       1.975717
                                                         0.402000       0.000000
                                                         0.145000       0.000000
                          7       1    1dxy              1.110000       3.422042
                                                         0.402000       0.000000
                                                         0.145000       0.000000
                          7       1    1dxz              1.110000       3.422042
                                                         0.402000       0.000000
                                                         0.145000       0.000000
                          7       1    1dy2              1.110000       1.975717
                                                         0.402000       0.000000
                                                         0.145000       0.000000
                          7       1    1dyz              1.110000       3.422042
                                                         0.402000       0.000000
                                                         0.145000       0.000000
                          7       1    1dz2              1.110000       1.975717
                                                         0.402000       0.000000
                                                         0.145000       0.000000

                          7       2    2dx2              1.110000       0.000000
                                                         0.402000       0.334045
                                                         0.145000       0.000000
                          7       2    2dxy              1.110000       0.000000
                                                         0.402000       0.578583
                                                         0.145000       0.000000
                          7       2    2dxz              1.110000       0.000000
                                                         0.402000       0.578583
                                                         0.145000       0.000000
                          7       2    2dy2              1.110000       0.000000
                                                         0.402000       0.334045
                                                         0.145000       0.000000
                          7       2    2dyz              1.110000       0.000000
                                                         0.402000       0.578583
                                                         0.145000       0.000000
                          7       2    2dz2              1.110000       0.000000
                                                         0.402000       0.334045
                                                         0.145000       0.000000

                          7       3    3dx2              1.110000       0.000000
                                                         0.402000       0.000000
                                                         0.145000       0.056079
                          7       3    3dxy              1.110000       0.000000
                                                         0.402000       0.000000
                                                         0.145000       0.097132
                          7       3    3dxz              1.110000       0.000000
                                                         0.402000       0.000000
                                                         0.145000       0.097132
                          7       3    3dy2              1.110000       0.000000
                                                         0.402000       0.000000
                                                         0.145000       0.056079
                          7       3    3dyz              1.110000       0.000000
                                                         0.402000       0.000000
                                                         0.145000       0.097132
                          7       3    3dz2              1.110000       0.000000
                                                         0.402000       0.000000
                                                         0.145000       0.056079

                          8       1    1gx4              0.273000       0.031324
                          8       1    1gx3y             0.273000       0.082877
                          8       1    1gx3z             0.273000       0.082877
                          8       1    1gx2y2            0.273000       0.106993
                          8       1    1gx2yz            0.273000       0.185318
                          8       1    1gx2z2            0.273000       0.106993
                          8       1    1gxy3             0.273000       0.082877
                          8       1    1gxy2z            0.273000       0.185318
                          8       1    1gxyz2            0.273000       0.185318
                          8       1    1gxz3             0.273000       0.082877
                          8       1    1gy4              0.273000       0.031324
                          8       1    1gy3z             0.273000       0.082877
                          8       1    1gy2z2            0.273000       0.106993
                          8       1    1gyz3             0.273000       0.082877
                          8       1    1gz4              0.273000       0.031324

                          9       1    1fx3              0.882000       1.109836
                                                         0.311000       0.000000
                          9       1    1fx2y             0.882000       2.481669
                                                         0.311000       0.000000
                          9       1    1fx2z             0.882000       2.481669
                                                         0.311000       0.000000
                          9       1    1fxy2             0.882000       2.481669
                                                         0.311000       0.000000
                          9       1    1fxyz             0.882000       4.298376
                                                         0.311000       0.000000
                          9       1    1fxz2             0.882000       2.481669
                                                         0.311000       0.000000
                          9       1    1fy3              0.882000       1.109836
                                                         0.311000       0.000000
                          9       1    1fy2z             0.882000       2.481669
                                                         0.311000       0.000000
                          9       1    1fyz2             0.882000       2.481669
                                                         0.311000       0.000000
                          9       1    1fz3              0.882000       1.109836
                                                         0.311000       0.000000

                          9       2    2fx3              0.882000       0.000000
                                                         0.311000       0.106332
                          9       2    2fx2y             0.882000       0.000000
                                                         0.311000       0.237766
                          9       2    2fx2z             0.882000       0.000000
                                                         0.311000       0.237766
                          9       2    2fxy2             0.882000       0.000000
                                                         0.311000       0.237766
                          9       2    2fxyz             0.882000       0.000000
                                                         0.311000       0.411823
                          9       2    2fxz2             0.882000       0.000000
                                                         0.311000       0.237766
                          9       2    2fy3              0.882000       0.000000
                                                         0.311000       0.106332
                          9       2    2fy2z             0.882000       0.000000
                                                         0.311000       0.237766
                          9       2    2fyz2             0.882000       0.000000
                                                         0.311000       0.237766
                          9       2    2fz3              0.882000       0.000000
                                                         0.311000       0.106332

                         10       1    1gx4              0.673000       0.374522
                         10       1    1gx3y             0.673000       0.990891
                         10       1    1gx3z             0.673000       0.990891
                         10       1    1gx2y2            0.673000       1.279235
                         10       1    1gx2yz            0.673000       2.215700
                         10       1    1gx2z2            0.673000       1.279235
                         10       1    1gxy3             0.673000       0.990891
                         10       1    1gxy2z            0.673000       2.215700
                         10       1    1gxyz2            0.673000       2.215700
                         10       1    1gxz3             0.673000       0.990891
                         10       1    1gy4              0.673000       0.374522
                         10       1    1gy3z             0.673000       0.990891
                         10       1    1gy2z2            0.673000       1.279235
                         10       1    1gyz3             0.673000       0.990891
                         10       1    1gz4              0.673000       0.374522

     AE Potential information for                                            ALL

       Description:                                       All-electron potential
                                          Krack, Parrinello, PCCP 2, 2105 (2000)

       Gaussian exponent of the core charge distribution:               2.655410
       Electronic configuration (s p d ...):                           4   1   0

  2. Atomic kind: H                                     Number of atoms:       1

     Orbital Basis Set                                               aug-cc-pVQZ

       Number of orbital shell sets:                                           8
       Number of orbital shells:                                              14
       Number of primitive Cartesian functions:                               16
       Number of Cartesian basis functions:                                   55
       Number of spherical basis functions:                                   46
       Norm type:                                                              2

       Normalised Cartesian orbitals:

                        Set   Shell   Orbital            Exponent    Coefficient

                          1       1    1s                0.023630       0.042954

                          2       1    1px               0.084800       0.065228
                          2       1    1py               0.084800       0.065228
                          2       1    1pz               0.084800       0.065228

                          3       1    1s               82.640000       0.000000
                                                        12.410000       0.000000
                                                         2.824000       0.000000
                                                         0.797700       0.601575
                                                         0.258100       0.000000
                                                         0.089890       0.000000

                          3       2    2s               82.640000       0.000000
                                                        12.410000       0.000000
                                                         2.824000       0.000000
                                                         0.797700       0.000000
                                                         0.258100       0.258078
                                                         0.089890       0.000000

                          3       3    3s               82.640000       0.039186
                                                        12.410000       0.072302
                                                         2.824000       0.117344
                                                         0.797700       0.154530
                                                         0.258100       0.128360
                                                         0.089890       0.034648

                          3       4    4s               82.640000       0.000000
                                                        12.410000       0.000000
                                                         2.824000       0.000000
                                                         0.797700       0.000000
                                                         0.258100       0.000000
                                                         0.089890       0.117002

                          4       1    1dx2              0.190000       0.089997
                          4       1    1dxy              0.190000       0.155879
                          4       1    1dxz              0.190000       0.155879
                          4       1    1dy2              0.190000       0.089997
                          4       1    1dyz              0.190000       0.155879
                          4       1    1dz2              0.190000       0.089997

                          5       1    1px               2.292000       4.019836
                                                         0.838000       0.000000
                                                         0.292000       0.000000
                          5       1    1py               2.292000       4.019836
                                                         0.838000       0.000000
                                                         0.292000       0.000000
                          5       1    1pz               2.292000       4.019836
                                                         0.838000       0.000000
                                                         0.292000       0.000000

                          5       2    2px               2.292000       0.000000
                                                         0.838000       1.142865
                                                         0.292000       0.000000
                          5       2    2py               2.292000       0.000000
                                                         0.838000       1.142865
                                                         0.292000       0.000000
                          5       2    2pz               2.292000       0.000000
                                                         0.838000       1.142865
                                                         0.292000       0.000000

                          5       3    3px               2.292000       0.000000
                                                         0.838000       0.000000
                                                         0.292000       0.305963
                          5       3    3py               2.292000       0.000000
                                                         0.838000       0.000000
                                                         0.292000       0.305963
                          5       3    3pz               2.292000       0.000000
                                                         0.838000       0.000000
                                                         0.292000       0.305963

                          6       1    1fx3              0.360000       0.147787
                          6       1    1fx2y             0.360000       0.330461
                          6       1    1fx2z             0.360000       0.330461
                          6       1    1fxy2             0.360000       0.330461
                          6       1    1fxyz             0.360000       0.572375
                          6       1    1fxz2             0.360000       0.330461
                          6       1    1fy3              0.360000       0.147787
                          6       1    1fy2z             0.360000       0.330461
                          6       1    1fyz2             0.360000       0.330461
                          6       1    1fz3              0.360000       0.147787

                          7       1    1dx2              2.062000       5.840024
                                                         0.662000       0.000000
                          7       1    1dxy              2.062000      10.115218
                                                         0.662000       0.000000
                          7       1    1dxz              2.062000      10.115218
                                                         0.662000       0.000000
                          7       1    1dy2              2.062000       5.840024
                                                         0.662000       0.000000
                          7       1    1dyz              2.062000      10.115218
                                                         0.662000       0.000000
                          7       1    1dz2              2.062000       5.840024
                                                         0.662000       0.000000

                          7       2    2dx2              2.062000       0.000000
                                                         0.662000       0.799670
                          7       2    2dxy              2.062000       0.000000
                                                         0.662000       1.385069
                          7       2    2dxz              2.062000       0.000000
                                                         0.662000       1.385069
                          7       2    2dy2              2.062000       0.000000
                                                         0.662000       0.799670
                          7       2    2dyz              2.062000       0.000000
                                                         0.662000       1.385069
                          7       2    2dz2              2.062000       0.000000
                                                         0.662000       0.799670

                          8       1    1fx3              1.397000       3.123535
                          8       1    1fx2y             1.397000       6.984436
                          8       1    1fx2z             1.397000       6.984436
                          8       1    1fxy2             1.397000       6.984436
                          8       1    1fxyz             1.397000      12.097399
                          8       1    1fxz2             1.397000       6.984436
                          8       1    1fy3              1.397000       3.123535
                          8       1    1fy2z             1.397000       6.984436
                          8       1    1fyz2             1.397000       6.984436
                          8       1    1fz3              1.397000       3.123535

     RI Auxiliary Basis Set                                    aug-cc-pVQZ-OPTRI

       Number of orbital shell sets:                                          15
       Number of orbital shells:                                              15
       Number of primitive Cartesian functions:                               15
       Number of Cartesian basis functions:                                   84
       Number of spherical basis functions:                                   63
       Norm type:                                                              2

       Normalised Cartesian orbitals:

                        Set   Shell   Orbital            Exponent    Coefficient

                          1       1    1s                0.172202       0.190519

                          2       1    1dx2              0.411937       0.348629
                          2       1    1dxy              0.411937       0.603843
                          2       1    1dxz              0.411937       0.603843
                          2       1    1dy2              0.411937       0.348629
                          2       1    1dyz              0.411937       0.603843
                          2       1    1dz2              0.411937       0.348629

                          3       1    1s                0.462666       0.399817

                          4       1    1px               0.544212       0.666270
                          4       1    1py               0.544212       0.666270
                          4       1    1pz               0.544212       0.666270

                          5       1    1fx3              0.798039       0.886153
                          5       1    1fx2y             0.798039       1.981498
                          5       1    1fx2z             0.798039       1.981498
                          5       1    1fxy2             0.798039       1.981498
                          5       1    1fxyz             0.798039       3.432056
                          5       1    1fxz2             0.798039       1.981498
                          5       1    1fy3              0.798039       0.886153
                          5       1    1fy2z             0.798039       1.981498
                          5       1    1fyz2             0.798039       1.981498
                          5       1    1fz3              0.798039       0.886153

                          6       1    1gx4              1.030651       1.209184
                          6       1    1gx3y             1.030651       3.199200
                          6       1    1gx3z             1.030651       3.199200
                          6       1    1gx2y2            1.030651       4.130150
                          6       1    1gx2yz            1.030651       7.153629
[...]
 Laino, R. Z. Khaliullin, O. Schuett, F. Schiffmann, D. Golze, J. Wilhelm, S. 
 Chulkov, M. H. Bani-Hashemian, V. Weber, U. Borstnik, M. Taillefumier, A. S. 
 Jakobovits, A. Lazzaro, H. Pabst, T. Mueller, R. Schade, M. Guidon, S. 
 Andermatt, N. Holmberg, G. K. Schenter, A. Hehn, A. Bussy, F. Belleflamme, G. 
 Tabacchi, A. Gloess, M. Lass, I. Bethune, C. J. Mundy, C. Plessl, M. Watkins, 
 J. VandeVondele, M. Krack, J. Hutter.
 J. Chem. Phys. 152, 194103 (2020).
 CP2K: An electronic structure and molecular dynamics software package - 
 Quickstep: Efficient and accurate electronic structure calculations.
 https://doi.org/10.1063/5.0007045

 J. Wilhelm, D. Golze, L. Talirz, J. Hutter, C. A. Pignedoli.
 J. Phys. Chem. Lett. 9, 306-312 (2018).
 Toward GW calculations on thousands of atoms.
 https://doi.org/10.1021/acs.jpclett.7b02740

 J. Wilhelm, J. Hutter.
 Phys. Rev. B 95, 235123 (2017).
 Periodic GW calculations in the Gaussian and plane-waves scheme.
 https://doi.org/10.1103/PhysRevB.95.235123

 O. Schuett, P. Messmer, J. Hutter, J. VandeVondele.
 Electronic Structure Calculations on Graphics Processing Units, 173-190 (2016).
 GPU-Accelerated Sparse Matrix-Matrix Multiplication for Linear Scaling Density 
 Functional Theory.
 https://doi.org/10.1002/9781118670712.ch8

 J. Wilhelm, M. Del Ben, J. Hutter.
 J. Chem. Theory Comput. 12, 3623-3635 (2016).
 GW in the Gaussian and plane waves scheme with application to linear acenes.
 https://doi.org/10.1021/acs.jctc.6b00380

 M. Del Ben, O. Schuett, T. Wentz, P. Messmer, J. Hutter, J. VandeVondele.
 Comput. Phys. Commun. 187, 120-129 (2015).
 Enabling simulation at the fifth rung of DFT: Large scale RPA calculations with 
 excellent time to solution.
 https://doi.org/10.1016/j.cpc.2014.10.021

 J. Hutter, M. Iannuzzi, F. Schiffmann, J. VandeVondele.
 WIREs Comput Mol Sci. 4, 15-25 (2014).
 CP2K: atomistic simulations of condensed matter systems.
 https://doi.org/10.1002/wcms.1159

 U. Borstnik, J. VandeVondele, V. Weber, J. Hutter.
 Parallel Comput. 40, 47-58 (2014).
 Sparse matrix multiplication: The distributed block-compressed sparse row 
 library.
 https://doi.org/10.1016/j.parco.2014.03.012

 M. Del Ben, J. Hutter, J. VandeVondele.
 J. Chem. Theory Comput. 9, 2654-2671 (2013).
 Electron Correlation in the Condensed Phase from a Resolution of Identity 
 Approach Based on the Gaussian and Plane Waves Scheme.
 https://doi.org/10.1021/ct4002202

 M. Del Ben, J. Hutter, J. VandeVondele.
 J. Chem. Theory Comput. 8, 4177-4188 (2012).
 Second-Order Moller-Plesset Perturbation Theory in the Condensed Phase: An 
 Efficient and Massively Parallel Gaussian and Plane Waves Approach.
 https://doi.org/10.1021/ct300531w

 M. Guidon, J. Hutter, J. VandeVondele.
 J. Chem. Theory Comput. 5, 3010-3021 (2009).
 Robust Periodic Hartree-Fock Exchange for Large-Scale Simulations Using 
 Gaussian Basis Sets.
 https://doi.org/10.1021/ct900494g

 M. Guidon, F. Schiffmann, J. Hutter, J. VandeVondele.
 J. Chem. Phys. 128, 214104 (2008).
 Ab initio molecular dynamics using hybrid density functionals.
 https://doi.org/10.1063/1.2931945

 L. Genovese, T. Deutsch, S. Goedecker.
 J. Chem. Phys. 127, 054704 (2007).
 Efficient and accurate three-dimensional Poisson solver for surface problems.
 https://doi.org/10.1063/1.2754685

 J. VandeVondele, J. Hutter.
 J. Chem. Phys. 127, 114105 (2007).
 Gaussian basis sets for accurate calculations on molecular systems in gas and 
 condensed phases.
 https://doi.org/10.1063/1.2770708

 L. Genovese, T. Deutsch, A. Neelov, S. Goedecker, G. Beylkin.
 J. Chem. Phys. 125, 074105 (2006).
 Efficient solution of Poisson's equation with free boundary conditions.
 https://doi.org/10.1063/1.2335442

 M. Frigo, S. G. Johnson.
 Proc. IEEE 93, 216-231 (2005).
 The design and implementation of FFTW3.
 https://doi.org/10.1109/JPROC.2004.840301

 M. Krack, M. Parrinello.
 Phys. Chem. Chem. Phys. 2, 2105-2112 (2000).
 All-electron ab-initio molecular dynamics.
 https://doi.org/10.1039/b001167n

 G. Lippert, J. Hutter, M. Parrinello.
 Theor. Chem. Acc. 103, 124-140 (1999).
 The Gaussian and augmented-plane-wave density functional method for ab initio 
 molecular dynamics simulations.
 https://doi.org/10.1007/s002140050523

 J. P. Perdew, K. Burke, M. Ernzerhof.
 Phys. Rev. Lett. 77, 3865-3868 (1996).
 Generalized gradient approximation made simple.
 https://doi.org/10.1103/PhysRevLett.77.3865


 -------------------------------------------------------------------------------
 -                                                                             -
 -                                T I M I N G                                  -
 -                                                                             -
 -------------------------------------------------------------------------------
 SUBROUTINE                       CALLS  ASD         SELF TIME        TOTAL TIME
                                MAXIMUM       AVERAGE  MAXIMUM  AVERAGE  MAXIMUM
 CP2K                                 1  1.0    0.042    0.064  437.703  437.703
 qs_energies                          1  2.0    0.001    0.001  435.681  435.913
 scf_env_do_scf                       1  3.0    0.000    0.000  425.517  425.518
 scf_env_do_scf_inner_loop           70  4.0    0.002    0.004  425.517  425.518
 qs_ks_build_kohn_sham_matrix        71  7.0    0.011    0.012  333.688  333.713
 qs_ks_update_qs_env                 70  5.0    0.000    0.001  331.013  331.038
 rebuild_ks_matrix                   70  6.0    0.000    0.000  331.005  331.030
 fft_wrap_pw1pw2                   1482  9.9    0.035    0.044  167.911  169.809
 fft_wrap_pw1pw2_250               1056 11.1    7.402    8.285  162.715  164.923
 fft3d_ps                          1482 11.9   71.921   74.796  131.859  133.954
 pw_poisson_solve                    71  8.0    3.108    3.181  113.865  113.891
 qs_vxc_create                       71  8.0    0.001    0.001  100.410  100.410
 xc_vxc_pw_create                    70  9.0    1.760    1.843  100.409  100.409
 xc_pw_derive                       420 11.0    0.005    0.007   73.465   75.840
 ps_wavelet_solve                    71  9.0   63.912   69.113   75.603   75.798
 mp_alltoall_d54                     71 10.0    7.416   59.591    7.416   59.591
 xc_pw_divergence                    70 10.0    0.003    0.004   48.569   50.721
 xc_rho_set_and_dset_create          70 10.0    1.333    1.577   49.325   50.714
 gspace_mixing                       69  5.0    1.348    1.361   50.497   50.497
 mp_alltoall_z22v                  1482 13.9   36.824   49.342   36.824   49.342
 hfx_ks_matrix                       71  8.0    0.003    0.003   45.470   45.547
 integrate_four_center               71  9.0    1.453    3.009   45.466   45.542
 qs_rho_update_rho_low               71  5.0    0.001    0.001   43.976   43.976
 calculate_rho_elec                  71  6.0    1.388    1.400   43.885   43.886
 broyden_mixing                      69  6.0   38.087   38.562   38.743   38.977
 x_to_yz                            775 13.1   15.765   16.166   33.679   34.511
 yz_to_x                            707 12.8    7.330    8.863   26.239   34.366
 mp_sync                            791  9.5   30.766   33.841   30.766   33.841
 integrate_four_center_main          71 10.0    1.060   20.885    1.624   33.545
 density_rs2pw                       71  7.0    0.005    0.005   32.319   33.508
 sum_up_and_integrate                71  8.0    0.001    0.002   27.481   27.532
 integrate_v_rspace                  71  9.0    0.002    0.002   27.061   27.164
 potential_pw2rs                     71 10.0    0.062    0.067   22.445   22.545
 prepare_gapw_den                    71  8.0    0.001    0.002   21.714   21.936
 put_rho0_on_grid                    71  9.0    1.390    1.406   17.956   18.179
 transfer_pw2rs                     356 10.6    0.006    0.007   13.713   13.796
 transfer_rs2pw                     356  8.4    0.009    0.012   12.000   13.220
 integrate_four_center_bin         5558 11.0    0.564   12.660    0.564   12.660
 pw_scatter_p                       775 12.1   12.229   12.416   12.229   12.416
 grid_collocate_task_list            71  7.0    9.872   11.765    9.872   11.765
 mp_waitany                       11984 11.5   10.188   11.380   10.188   11.380
 pw_gather_p                        707 11.8   10.123   10.916   10.123   10.916
 xc_functional_eval                 350 10.9    0.001    0.002    9.398   10.517
 pbe_lda_eval                       350 11.9    9.398   10.516    9.398   10.516
 transfer_pw2rs_250                 143 11.0    3.846    4.105   10.170   10.436
 calc_screening_functions             1 10.0    8.721    9.321    9.824   10.429
 transfer_rs2pw_250                 143 10.0    3.741    4.105    9.042   10.179
 mp_sum_d                          2357  6.4    7.114    9.576    7.114    9.576
 mp2_main                             1  3.0    0.000    0.000    8.742    8.974
 pw_derive                          633 11.3    8.408    8.799    8.408    8.799
 mp_alltoall_d11v                  1376  9.5    6.603    7.955    6.603    7.955
 integrate_vhg0_rspace               71  8.0    0.148    0.170    6.689    6.701
 mp2_gpw_main                         1  4.0    0.000    0.000    5.871    5.882
 rpa_ri_compute_en                    1  5.0    0.000    0.000    5.539    5.539
 rpa_num_int                          1  6.0    0.001    0.001    5.519    5.519
 compute_GW_self_energy             100  7.0    0.001    0.001    5.216    5.308
 compute_GW_self_energy_deep        100  8.0    4.415    4.501    5.165    5.258
 fft_wrap_pw1pw2_90                 142 10.5    0.214    0.297    4.286    5.034
 calculate_vxc_atom                  71  8.0    0.040    0.505    4.904    4.904
 pw_copy                           1060 10.6    4.507    4.850    4.507    4.850
 mp_alltoall_d45                     72 10.0    3.533    4.707    3.533    4.707
 rs_gather_matrices                  71 10.0    0.007    0.022    4.047    4.614
 grid_integrate_task_list            71 10.0    0.567    4.572    0.567    4.572
 cp2k_distribution_to_z_slices       71  9.0    2.652    2.728    4.087    4.487
 gaVxcgb_GC                         140  9.0    0.179    4.300    0.179    4.300
 pw_poisson_set                      72  8.9    0.002    0.003    4.180    4.206
 pw_copy_to_array                   707 11.8    3.792    4.150    3.792    4.150
 calculate_rho_atom                 142  9.0    0.929    3.553    0.929    3.553
 pw_axpy                            705  9.3    3.097    3.366    3.097    3.366
 rs_grid_zero                       357 11.2    3.299    3.335    3.299    3.335
 mp_sum_dv                         3454 10.2    2.830    3.093    2.830    3.093
 compute_vec_Sigma_x_minus_vxc_       1  4.0    0.000    0.000    2.687    2.687
 pw_integral_ab_c1d_c1d_gs           71  9.0    2.107    2.293    2.514    2.659
 pw_copy_from_array                 775 12.1    2.215    2.630    2.215    2.630
 transfer_pw2rs_90                   71 12.0    0.613    0.657    1.866    2.076
 pw_poisson_rebuild                  71  9.0    0.000    0.000    1.836    1.866
 ps_wavelet_create                    1 10.0    0.000    0.000    1.836    1.866
 RS_z_slice_distribution              1 11.0    1.671    1.741    1.836    1.866
 powell_optimize                 714682 11.0    1.756    1.772    1.756    1.772
 transfer_rs2pw_90                   71  9.0    0.481    0.539    1.499    1.763
 pw_zero                            422 10.3    1.418    1.483    1.418    1.483
 mp_waitall_1                     13430 12.1    1.110    1.413    1.110    1.413
 transfer_pw2rs_30                   71 12.0    0.793    0.837    1.294    1.386
 Vh_1c_gg_integrals                  71  8.0    0.027    0.465    0.640    1.327
 mp_sum_dm                          501  7.6    0.791    1.261    0.791    1.261
 transfer_rs2pw_30                   71  9.0    0.608    0.627    1.165    1.180
 init_scf_run                         1  3.0    0.000    0.000    1.053    1.054
 scf_env_initial_rho_setup            1  4.0    0.000    0.000    1.043    1.043
 calc_pair_dist_radii                 1 10.0    0.360    0.364    1.012    1.021
 mp_isend_dv                      12266 11.7    0.735    0.998    0.735    0.998
 scale_and_distribute               142 10.0    0.907    0.955    0.907    0.955
 mp_irecv_dm3                      1712 11.5    0.472    0.950    0.472    0.950
 qs_init_subsys                       1  2.0    0.005    0.005    0.896    0.897
 qs_env_setup                         1  3.0    0.000    0.000    0.864    0.869
 qs_env_rebuild_pw_env                2  3.5    0.000    0.000    0.862    0.868
 pw_env_rebuild                       1  5.0    0.001    0.001    0.862    0.868
 parallel_gemm_fm                   360  8.5    0.001    0.001    0.821    0.848
 parallel_gemm_fm_gemm              360  9.5    0.001    0.001    0.820    0.847
 cp_fm_gemm                         360 10.5    0.820    0.847    0.820    0.847
 pw_grid_setup                        4  6.0    0.000    0.000    0.836    0.841
 pw_grid_setup_internal               4  7.0    0.020    0.022    0.836    0.841
 mp_sum_l                          1009  6.3    0.632    0.802    0.632    0.802
 integrate_four_center_load          71 10.0    0.000    0.001    0.611    0.783
 hfx_load_balance                     1 11.0    0.000    0.000    0.611    0.783
 create_qs_kind_set                   1  2.0    0.000    0.000    0.781    0.782
 read_qs_kind                         2  3.0    0.422    0.437    0.781    0.782
 hfx_load_balance_range               1 12.0    0.000    0.001    0.606    0.779
 mp_sendrecv_dv                    3266 10.0    0.729    0.756    0.729    0.756
 qs_scf_new_mos                      70  5.0    0.001    0.001    0.747    0.753
 mp_max_i                           584  2.9    0.380    0.739    0.380    0.739
 fft_wrap_pw1pw2_30                 142 10.5    0.034    0.039    0.714    0.736
 pw_grid_sort                         4  8.0    0.471    0.477    0.667    0.674
 mp_isend_dm3                      1712 11.5    0.418    0.664    0.418    0.664
 cp_fm_syevd                         76  7.0    0.001    0.001    0.528    0.529
 eigensolver_symm                    71  6.0    0.002    0.002    0.504    0.505
 cp_fm_redistribute_end              76  8.0    0.256    0.485    0.257    0.487
 pw_scale                           281  9.5    0.387    0.465    0.387    0.465
 cp_fm_syevd_base                    76  8.0    0.230    0.460    0.230    0.460
 transfer_pw2rs_10                   71 12.0    0.168    0.175    0.377    0.402
 mp_sum_i                            17  9.9    0.233    0.390    0.233    0.390
 restraint_control                    1  2.0    0.000    0.000    0.232    0.389
 mp2_main_alloc_hfx                   1  4.0    0.158    0.389    0.158    0.389
 mp_isendrecv_dv                   6532 12.0    0.216    0.388    0.216    0.388
 parser_read_line                 90446  4.0    0.031    0.033    0.359    0.364
 parser_read_line_low               100  5.0    0.027    0.145    0.328    0.332
 mp2_ri_gpw_compute_in                1  5.0    0.000    0.000    0.315    0.315
 broadcast_input_information        100  6.0    0.070    0.083    0.301    0.314
 mp2_ri_gpw_compute_in_loop           1  6.0    0.000    0.000    0.310    0.310
 mixing_init                          1  5.0    0.288    0.295    0.294    0.295
 transfer_rs2pw_10                   71  9.0    0.114    0.120    0.285    0.295
 contract_B_L                         4  7.0    0.002    0.002    0.198    0.257
 xc_pw_smooth                        70 10.0    0.000    0.000    0.196    0.250
 integrate_four_center_getP          71 10.0    0.005    0.007    0.208    0.223
 mp_irecv_dv                      12234 11.7    0.116    0.221    0.116    0.221
 mp_cart_create                     395 10.3    0.147    0.206    0.148    0.206
 calculate_rho0_atom                142  9.0    0.193    0.200    0.193    0.200
 sort_shells                          4  9.0    0.196    0.198    0.196    0.198
 mp2_eri_3c_integrate                 1  7.0    0.001    0.001    0.074    0.197
 qs_energies_init_hamiltonians        1  3.0    0.000    0.000    0.197    0.197
 integrate_set_3c                   732  8.0    0.066    0.179    0.073    0.196
 dbt_pgrid_create_expert             80 10.7    0.000    0.000    0.133    0.192
 build_core_hamiltonian_matrix        1  4.0    0.000    0.000    0.191    0.192
 overlap_condnum                      1  5.0    0.000    0.000    0.188    0.190
 fft_wrap_pw1pw2_10                 142 10.5    0.007    0.009    0.161    0.179
 calculate_dm_sparse                 70  6.0    0.000    0.001    0.169    0.177
 cp_dbcsr_plus_fm_fm_t               70  7.0    0.001    0.001    0.168    0.175
 scf_post_calculation_gpw             1  3.0    0.000    0.000    0.170    0.170
 write_available_results              1  4.0    0.000    0.000    0.170    0.170
 write_mo_free_results                1  5.0    0.026    0.027    0.170    0.170
 dbcsr_multiply_generic             131  8.1    0.005    0.006    0.156    0.163
 arnoldi_conjugate_gradient           5  6.0    0.004    0.005    0.160    0.160
 integrate_four_center_dist_KS       71 10.0    0.006    0.009    0.155    0.158
 mp_bcast_i_src                     400  7.0    0.127    0.143    0.127    0.143
 rpa_num_int_RPA_matrix_operati     100  7.0    0.001    0.002    0.121    0.121
 pw_grid_assign                       4  8.0    0.104    0.105    0.106    0.110
 mp_bcast_am_src                    100  7.0    0.083    0.086    0.101    0.108
 dbcsr_sym_matrix_vector_mult       612  7.0    0.010    0.011    0.069    0.102
 copy_dbcsr_to_fm                   109  6.6    0.002    0.002    0.096    0.099
 calculate_rho_atom_coeff            71  6.0    0.016    0.047    0.090    0.090
 vxc_of_r_new                       280  9.0    0.001    0.013    0.004    0.090
 dbcsr_complete_redistribute        253  8.5    0.011    0.015    0.081    0.083
 make_m2s                           262  9.1    0.004    0.004    0.078    0.083
 start_bse_calculation                1  7.0    0.000    0.000    0.082    0.082
 calc_mat_Q                         100  8.0    0.000    0.000    0.078    0.080
 hirshfeld_integration                1  6.0    0.000    0.001    0.072    0.074
 calculate_hirshfeld_normalizat       1  6.0    0.000    0.002    0.070    0.071
 contract_S_to_Q                    100  9.0    0.000    0.000    0.068    0.070
 dbcsr_finalize                    2536 10.8    0.008    0.018    0.028    0.059
 dbcsr_add_d                        976  7.1    0.001    0.001    0.009    0.058
 dbcsr_add_anytype                  976  8.1    0.001    0.009    0.008    0.057
 multiply_cannon                    131  9.1    0.009    0.010    0.050    0.055
 dbt_total                            8  8.0    0.000    0.000    0.054    0.054
 dbcsr_desymmetrize_deep            111  7.6    0.003    0.005    0.050    0.053
 update_ks_atom                      71  8.0    0.007    0.033    0.030    0.050
 dbt_contract                         4  9.0    0.001    0.001    0.046    0.046
 offload_free_buffer                 79  8.4    0.036    0.046    0.036    0.046
 copy_fm_to_dbcsr                   144  8.1    0.001    0.001    0.043    0.045
 -------------------------------------------------------------------------------

 The number of warnings for this run is : 1
 
 -------------------------------------------------------------------------------
  **** **** ******  **  PROGRAM ENDED AT                 2025-03-11 07:17:03.685
 ***** ** ***  *** **   PROGRAM RAN ON                              i01r03c01s01
 **    ****   ******    PROGRAM RAN BY                                   di38fab
 ***** **    ** ** **   PROGRAM PROCESS ID                               2730026
  **** **  *******  **  PROGRAM STOPPED IN /hppfs/scratch/04/di38fab/05_MOL/W4-1
                                           1+ALK/bh/aug-cc-pVQZ
