 DBCSR| CPU Multiplication driver                                           BLAS (U)
 DBCSR| Multrec recursion limit                                              512 (U)
 DBCSR| Multiplication stack size                                           1000 (D)
 DBCSR| Maximum elements for images                                    UNLIMITED (U)
 DBCSR| Multiplicative factor virtual images                                   1 (U)
 DBCSR| Use multiplication densification                                       T (D)
 DBCSR| Multiplication size stacks                                             3 (U)
 DBCSR| Use memory pool for CPU allocation                                     F (U)
 DBCSR| Number of 3D layers                                               SINGLE (U)
 DBCSR| Use MPI memory allocation                                              F (U)
 DBCSR| Use RMA algorithm                                                      F (U)
 DBCSR| Use Communication thread                                               T (U)
 DBCSR| Communication thread load                                             75 (D)
 DBCSR| MPI: My process id                                                     0
 DBCSR| MPI: Number of processes                                              48
 DBCSR| OMP: Current number of threads                                         4
 DBCSR| OMP: Max number of threads                                             4
 DBCSR| Split modifier for TAS multiplication algorithm                  1.0E+00 (U)


  **** **** ******  **  PROGRAM STARTED AT               2025-03-26 05:50:39.184
 ***** ** ***  *** **   PROGRAM STARTED ON                          i05r11c03s12
 **    ****   ******    PROGRAM STARTED BY                               di38fab
 ***** **    ** ** **   PROGRAM PROCESS ID                               3442148
  **** **  *******  **  PROGRAM STARTED IN /hppfs/scratch/04/di38fab/05_MOL/W4-1
                                           1+ALK/li_h/TZVP/GW+BSE/1e-4

 CP2K| version string:                 CP2K version 2025.1 (Development Version)
 CP2K| source code revision number:                                  git:d2e611a
 CP2K| cp2kflags: omp libint fftw3 libxc parallel scalapack max_contr=4         
 CP2K| is freely available from                            https://www.cp2k.org/
 CP2K| Program compiled at                       Thu 06 Mar 2025 05:09:20 PM CET
 CP2K| Program compiled on                                               login02
 CP2K| Program compiled for                                        Supermuc-foss
 CP2K| Data directory path                  /hppfs/work/pn36zo/di38fab/cp2k/data
 CP2K| Input file name                                                    GW.inp

 GLOBAL| Force Environment number                                              1
 GLOBAL| Basis set file name            /hppfs/scratch/04/di38fab/04_TMD/BASIS_A
 GLOBAL| Potential file name            /hppfs/work/pn36zo/di38fab/cp2k/data/ALL
 GLOBAL| MM Potential file name                                     MM_POTENTIAL
 GLOBAL| Coordinate file name                                      __STD_INPUT__
 GLOBAL| Method name                                                        CP2K
 GLOBAL| Project name                                                       MoS2
 GLOBAL| Run type                                                         ENERGY
 GLOBAL| FFT library                                                       FFTW3
 GLOBAL| Diagonalization library                                       ScaLAPACK
 GLOBAL| DGEMM library                                                      BLAS
 GLOBAL| Orthonormality check for eigenvectors                          DISABLED
 GLOBAL| Matrix multiplication library                                 ScaLAPACK
 GLOBAL| All-to-all communication in single precision                          F
 GLOBAL| FFTs using library dependent lengths                                  F
 GLOBAL| Grid backend                                                       AUTO
 GLOBAL| Global print level                                               MEDIUM
 GLOBAL| MPI I/O enabled                                                       T
 GLOBAL| Total number of message passing processes                            48
 GLOBAL| Number of threads for this process                                    4
 GLOBAL| This output is from process                                           0
 GLOBAL| OpenMP stack size per thread (OMP_STACKSIZE)                    default
 GLOBAL| CPU model name             Intel(R) Xeon(R) Platinum 8174 CPU @ 3.10GHz

 MEMORY| system memory details [Kb]
 MEMORY|                        rank 0           min           max       average
 MEMORY| MemTotal             98436708      98436660      98436708      98436674
 MEMORY| MemFree              83867556      83867556      84200112      84033477
 MEMORY| Buffers                     0             0             0             0
 MEMORY| Cached                2406592       2401656       2408536       2406067
 MEMORY| Slab                  1247796       1244868       1255444       1249664
 MEMORY| SReclaimable           276644        274432        277520        276368
 MEMORY| MemLikelyFree        86550792      86550792      86885116      86715912


 *** Fundamental physical constants (SI units) ***

 *** Literature: B. J. Mohr and B. N. Taylor,
 ***             CODATA recommended values of the fundamental physical
 ***             constants: 2006, Web Version 5.1
 ***             http://physics.nist.gov/constants

 Speed of light in vacuum [m/s]                             2.99792458000000E+08
 Magnetic constant or permeability of vacuum [N/A**2]       1.25663706143592E-06
 Electric constant or permittivity of vacuum [F/m]          8.85418781762039E-12
 Planck constant (h) [J*s]                                  6.62606896000000E-34
 Planck constant (h-bar) [J*s]                              1.05457162825177E-34
 Elementary charge [C]                                      1.60217648700000E-19
 Electron mass [kg]                                         9.10938215000000E-31
 Electron g factor [ ]                                     -2.00231930436220E+00
 Proton mass [kg]                                           1.67262163700000E-27
 Fine-structure constant                                    7.29735253760000E-03
 Rydberg constant [1/m]                                     1.09737315685270E+07
 Avogadro constant [1/mol]                                  6.02214179000000E+23
 Boltzmann constant [J/K]                                   1.38065040000000E-23
 Atomic mass unit [kg]                                      1.66053878200000E-27
 Bohr radius [m]                                            5.29177208590000E-11

 *** Conversion factors ***

 [u] -> [a.u.]                                              1.82288848426455E+03
 [Angstrom] -> [Bohr] = [a.u.]                              1.88972613288564E+00
 [a.u.] = [Bohr] -> [Angstrom]                              5.29177208590000E-01
 [a.u.] -> [s]                                              2.41888432650478E-17
 [a.u.] -> [fs]                                             2.41888432650478E-02
 [a.u.] -> [J]                                              4.35974393937059E-18
 [a.u.] -> [N]                                              8.23872205491840E-08
 [a.u.] -> [K]                                              3.15774647902944E+05
 [a.u.] -> [kJ/mol]                                         2.62549961709828E+03
 [a.u.] -> [kcal/mol]                                       6.27509468713739E+02
 [a.u.] -> [Pa]                                             2.94210107994716E+13
 [a.u.] -> [bar]                                            2.94210107994716E+08
 [a.u.] -> [atm]                                            2.90362800883016E+08
 [a.u.] -> [eV]                                             2.72113838565563E+01
 [a.u.] -> [Hz]                                             6.57968392072181E+15
 [a.u.] -> [1/cm] (wave numbers)                            2.19474631370540E+05
 [a.u./Bohr**2] -> [1/cm]                                   5.14048714338585E+03
 

 CELL_TOP| Volume [angstrom^3]:                                     27000.000000
 CELL_TOP| Vector a [angstrom    30.000     0.000     0.000   |a| =    30.000000
 CELL_TOP| Vector b [angstrom     0.000    30.000     0.000   |b| =    30.000000
 CELL_TOP| Vector c [angstrom     0.000     0.000    30.000   |c| =    30.000000
 CELL_TOP| Angle (b,c), alpha [degree]:                                90.000000
 CELL_TOP| Angle (a,c), beta  [degree]:                                90.000000
 CELL_TOP| Angle (a,b), gamma [degree]:                                90.000000
 CELL_TOP| Numerically orthorhombic:                                         YES
 CELL_TOP| Periodicity                                                      NONE

 GENERATE|  Preliminary Number of Bonds generated:                             0
 GENERATE|  Achieved consistency in connectivity generation.

 CELL| Volume [angstrom^3]:                                         27000.000000
 CELL| Vector a [angstrom]:      30.000     0.000     0.000   |a| =    30.000000
 CELL| Vector b [angstrom]:       0.000    30.000     0.000   |b| =    30.000000
 CELL| Vector c [angstrom]:       0.000     0.000    30.000   |c| =    30.000000
 CELL| Angle (b,c), alpha [degree]:                                    90.000000
 CELL| Angle (a,c), beta  [degree]:                                    90.000000
 CELL| Angle (a,b), gamma [degree]:                                    90.000000
 CELL| Numerically orthorhombic:                                             YES
 CELL| Periodicity                                                          NONE

 CELL_REF| Volume [angstrom^3]:                                     27000.000000
 CELL_REF| Vector a [angstrom    30.000     0.000     0.000   |a| =    30.000000
 CELL_REF| Vector b [angstrom     0.000    30.000     0.000   |b| =    30.000000
 CELL_REF| Vector c [angstrom     0.000     0.000    30.000   |c| =    30.000000
 CELL_REF| Angle (b,c), alpha [degree]:                                90.000000
 CELL_REF| Angle (a,c), beta  [degree]:                                90.000000
 CELL_REF| Angle (a,b), gamma [degree]:                                90.000000
 CELL_REF| Numerically orthorhombic:                                         YES
 CELL_REF| Periodicity                                                      NONE

 *******************************************************************************
 *******************************************************************************
 **                                                                           **
 **     #####                         ##              ##                      **
 **    ##   ##            ##          ##              ##                      **
 **   ##     ##                       ##            ######                    **
 **   ##     ##  ##   ##  ##   #####  ##  ##   ####   ##    #####    #####    **
 **   ##     ##  ##   ##  ##  ##      ## ##   ##      ##   ##   ##  ##   ##   **
 **   ##  ## ##  ##   ##  ##  ##      ####     ###    ##   ######   ######    **
 **    ##  ###   ##   ##  ##  ##      ## ##      ##   ##   ##       ##        **
 **     #######   #####   ##   #####  ##  ##  ####    ##    #####   ##        **
 **           ##                                                    ##        **
 **                                                                           **
 **                                                ... make the atoms dance   **
 **                                                                           **
 **            Copyright (C) by CP2K developers group (2000-2025)             **
 **                      J. Chem. Phys. 152, 194103 (2020)                    **
 **                                                                           **
 *******************************************************************************

 DFT| Spin restricted Kohn-Sham (RKS) calculation                            RKS
 DFT| Multiplicity                                                             1
 DFT| Number of spin states                                                    1
 DFT| Charge                                                                   0
 DFT| Self-interaction correction (SIC)                                       NO
 DFT| Cutoffs: density                                              1.000000E-10
 DFT|          gradient                                             1.000000E-10
 DFT|          tau                                                  1.000000E-10
 DFT|          cutoff_smoothing_range                               0.000000E+00
 DFT| XC density smoothing                                                  NONE
 DFT| XC derivatives                                                          PW

 FUNCTIONAL| PBE:
 FUNCTIONAL| J.P.Perdew, K.Burke, M.Ernzerhof, Phys. Rev. Letter, vol. 77, n 18,
 FUNCTIONAL|  pp. 3865-3868, (1996)sx=0.750sc=1.000{spin unpolarized}           


 QS| Method:                                                                GAPW
 QS| Density plane wave grid type                        NON-SPHERICAL FULLSPACE
 QS| Number of grid levels:                                                    4
 QS| Density cutoff [a.u.]:                                                250.0
 QS| Multi grid cutoff [a.u.]: 1) grid level                               250.0
 QS|                           2) grid level                                83.3
 QS|                           3) grid level                                27.8
 QS|                           4) grid level                                 9.3
 QS| Grid level progression factor:                                          3.0
 QS| Relative density cutoff [a.u.]:                                        50.0
 QS| Interaction thresholds: eps_pgf_orb:                                1.0E-12
 QS|                         eps_filter_matrix:                          0.0E+00
 QS|                         eps_core_charge:                            1.0E-14
 QS|                         eps_rho_gspace:                             1.0E-12
 QS|                         eps_rho_rspace:                             1.0E-12
 QS|                         eps_gvg_rspace:                             1.0E-06
 QS|                         eps_ppl:                                    1.0E-02
 QS|                         eps_ppnl:                                   1.0E-08
 QS| GAPW|      One center basis from orbital basis primitives
 QS| GAPW|                   eps_fit:                                    1.0E-04
 QS| GAPW|                   eps_iso:                                    1.0E-12
 QS| GAPW|                   eps_svd:                                    1.0E-08
 QS| GAPW|                   eps_cpc:                                    1.0E-12
 QS| GAPW|   atom-r-grid: quadrature:                                     GC_LOG
 QS| GAPW|      atom-s-grid:  max l :                                          6
 QS| GAPW|      max_l_rho0 :                                                   2


 ATOMIC KIND INFORMATION

  1. Atomic kind: li                                    Number of atoms:       1

     Orbital Basis Set                                        aug-TZVP-MOLOPT-ae

       Number of orbital shell sets:                                           2
       Number of orbital shells:                                              13
       Number of primitive Cartesian functions:                               11
       Number of Cartesian basis functions:                                   40
       Number of spherical basis functions:                                   35
       Norm type:                                                              2

       Normalised Cartesian orbitals:

                        Set   Shell   Orbital            Exponent    Coefficient

                          1       1    1s                0.024646      -0.078105
                                                         0.071007       0.213026
                                                         0.237636      -0.232469
                                                         0.680928       0.544799
                                                         1.933558      -1.060981

                          1       2    2s                0.024646       0.006228
                                                         0.071007       0.022458
                                                         0.237636       0.022101
                                                         0.680928       0.156290
                                                         1.933558       0.593777

                          1       3    3s                0.024646       0.023237
                                                         0.071007       0.033037
                                                         0.237636       0.065312
                                                         0.680928       0.047064
                                                         1.933558      -0.462606

                          1       4    4s                0.024646       0.005162
                                                         0.071007       0.074011
                                                         0.237636      -0.047989
                                                         0.680928      -0.668780
                                                         1.933558       0.448387

                          1       5    5s                0.024646       0.052262
                                                         0.071007      -0.012156
                                                         0.237636      -0.070069
                                                         0.680928       0.011411
                                                         1.933558       0.006013

                          1       6    2px               0.024646       0.000822
                                                         0.071007      -0.000886
                                                         0.237636       0.077898
                                                         0.680928      -1.218050
                                                         1.933558       5.053657
                          1       6    2py               0.024646       0.000822
                                                         0.071007      -0.000886
                                                         0.237636       0.077898
                                                         0.680928      -1.218050
                                                         1.933558       5.053657
                          1       6    2pz               0.024646       0.000822
                                                         0.071007      -0.000886
                                                         0.237636       0.077898
                                                         0.680928      -1.218050
                                                         1.933558       5.053657

                          1       7    3px               0.024646      -0.010239
                                                         0.071007      -0.021942
                                                         0.237636       0.080413
                                                         0.680928       0.093238
                                                         1.933558       0.147169
                          1       7    3py               0.024646      -0.010239
                                                         0.071007      -0.021942
                                                         0.237636       0.080413
                                                         0.680928       0.093238
                                                         1.933558       0.147169
                          1       7    3pz               0.024646      -0.010239
                                                         0.071007      -0.021942
                                                         0.237636       0.080413
                                                         0.680928       0.093238
                                                         1.933558       0.147169

                          1       8    4px               0.024646       0.000237
                                                         0.071007       0.023413
                                                         0.237636       0.129113
                                                         0.680928       0.121719
                                                         1.933558       0.036550
                          1       8    4py               0.024646       0.000237
                                                         0.071007       0.023413
                                                         0.237636       0.129113
                                                         0.680928       0.121719
                                                         1.933558       0.036550
                          1       8    4pz               0.024646       0.000237
                                                         0.071007       0.023413
                                                         0.237636       0.129113
                                                         0.680928       0.121719
                                                         1.933558       0.036550

                          1       9    5px               0.024646      -0.012357
                                                         0.071007       0.058147
                                                         0.237636       0.060042
                                                         0.680928       0.050984
                                                         1.933558       0.171511
                          1       9    5py               0.024646      -0.012357
                                                         0.071007       0.058147
                                                         0.237636       0.060042
                                                         0.680928       0.050984
                                                         1.933558       0.171511
                          1       9    5pz               0.024646      -0.012357
                                                         0.071007       0.058147
                                                         0.237636       0.060042
                                                         0.680928       0.050984
                                                         1.933558       0.171511

                          1      10    3dx2              0.024646      -0.000157
                                                         0.071007       0.006388
                                                         0.237636       0.091398
                                                         0.680928       0.100225
                                                         1.933558      -0.256537
                          1      10    3dxy              0.024646      -0.000271
                                                         0.071007       0.011064
                                                         0.237636       0.158306
                                                         0.680928       0.173596
                                                         1.933558      -0.444335
                          1      10    3dxz              0.024646      -0.000271
                                                         0.071007       0.011064
                                                         0.237636       0.158306
                                                         0.680928       0.173596
                                                         1.933558      -0.444335
                          1      10    3dy2              0.024646      -0.000157
                                                         0.071007       0.006388
                                                         0.237636       0.091398
                                                         0.680928       0.100225
                                                         1.933558      -0.256537
                          1      10    3dyz              0.024646      -0.000271
                                                         0.071007       0.011064
                                                         0.237636       0.158306
                                                         0.680928       0.173596
                                                         1.933558      -0.444335
                          1      10    3dz2              0.024646      -0.000157
                                                         0.071007       0.006388
                                                         0.237636       0.091398
                                                         0.680928       0.100225
                                                         1.933558      -0.256537

                          1      11    4dx2              0.024646      -0.000002
                                                         0.071007       0.016088
                                                         0.237636       0.000035
                                                         0.680928      -0.002278
                                                         1.933558      -0.014809
                          1      11    4dxy              0.024646      -0.000003
                                                         0.071007       0.027866
                                                         0.237636       0.000061
                                                         0.680928      -0.003946
                                                         1.933558      -0.025650
                          1      11    4dxz              0.024646      -0.000003
                                                         0.071007       0.027866
                                                         0.237636       0.000061
                                                         0.680928      -0.003946
                                                         1.933558      -0.025650
                          1      11    4dy2              0.024646      -0.000002
                                                         0.071007       0.016088
                                                         0.237636       0.000035
                                                         0.680928      -0.002278
                                                         1.933558      -0.014809
                          1      11    4dyz              0.024646      -0.000003
                                                         0.071007       0.027866
                                                         0.237636       0.000061
                                                         0.680928      -0.003946
                                                         1.933558      -0.025650
                          1      11    4dz2              0.024646      -0.000002
                                                         0.071007       0.016088
                                                         0.237636       0.000035
                                                         0.680928      -0.002278
                                                         1.933558      -0.014809

                          1      12    4fx3              0.024646      -0.000304
                                                         0.071007       0.004674
                                                         0.237636      -0.004905
                                                         0.680928      -0.023032
                                                         1.933558       0.088408
                          1      12    4fx2y             0.024646      -0.000679
                                                         0.071007       0.010451
                                                         0.237636      -0.010968
                                                         0.680928      -0.051501
                                                         1.933558       0.197686
                          1      12    4fx2z             0.024646      -0.000679
                                                         0.071007       0.010451
                                                         0.237636      -0.010968
                                                         0.680928      -0.051501
                                                         1.933558       0.197686
                          1      12    4fxy2             0.024646      -0.000679
                                                         0.071007       0.010451
                                                         0.237636      -0.010968
                                                         0.680928      -0.051501
                                                         1.933558       0.197686
                          1      12    4fxyz             0.024646      -0.001176
                                                         0.071007       0.018102
                                                         0.237636      -0.018996
                                                         0.680928      -0.089202
                                                         1.933558       0.342401
                          1      12    4fxz2             0.024646      -0.000679
                                                         0.071007       0.010451
                                                         0.237636      -0.010968
                                                         0.680928      -0.051501
                                                         1.933558       0.197686
                          1      12    4fy3              0.024646      -0.000304
                                                         0.071007       0.004674
                                                         0.237636      -0.004905
                                                         0.680928      -0.023032
                                                         1.933558       0.088408
                          1      12    4fy2z             0.024646      -0.000679
                                                         0.071007       0.010451
                                                         0.237636      -0.010968
                                                         0.680928      -0.051501
                                                         1.933558       0.197686
                          1      12    4fyz2             0.024646      -0.000679
                                                         0.071007       0.010451
                                                         0.237636      -0.010968
                                                         0.680928      -0.051501
                                                         1.933558       0.197686
                          1      12    4fz3              0.024646      -0.000304
                                                         0.071007       0.004674
                                                         0.237636      -0.004905
                                                         0.680928      -0.023032
                                                         1.933558       0.088408

                          2       1    1s             6269.059024       0.195526
                                                       940.419254       0.355467
                                                       214.089215       0.613400
                                                        60.725519       1.001660
                                                        18.086742       1.629632
                                                         5.657040       1.936268

     RI Auxiliary Basis Set             RI_aug-TZVP-MOLOPT-ae_N_RI_015_s_p_d_f_g

       Number of orbital shell sets:                                           7
       Number of orbital shells:                                               7
       Number of primitive Cartesian functions:                                7
       Number of Cartesian basis functions:                                   16
       Number of spherical basis functions:                                   15
       Norm type:                                                              2

       Normalised Cartesian orbitals:

                        Set   Shell   Orbital            Exponent    Coefficient

                          1       1    1s                0.423592       0.374215

                          2       1    7dx2              0.914374       1.407265
                          2       1    7dxy              0.914374       2.437455
                          2       1    7dxz              0.914374       2.437455
                          2       1    7dy2              0.914374       1.407265
                          2       1    7dyz              0.914374       2.437455
                          2       1    7dz2              0.914374       1.407265

                          3       1    5px               1.095653       1.597833
                          3       1    5py               1.095653       1.597833
                          3       1    5pz               1.095653       1.597833

                          4       1    2s                1.492684       0.962467

                          5       1    6px               4.602940       9.610240
                          5       1    6py               4.602940       9.610240
                          5       1    6pz               4.602940       9.610240

                          6       1    3s                5.260022       2.475431

                          7       1    4s               18.535644       6.366721

       Atomic covalent radius [Angstrom]:                                  1.230

       Atomic van der Waals radius [Angstrom]:                             1.820

     The atoms of this atomic kind are PAW atoms (GAPW):
       Hard Gaussian function radius:                                      1.512
       Rho0 radius:                                                        1.512
       Maximum GTO radius used for PAW projector construction:            24.566

     GAPW Soft Basis Set                                 aug-TZVP-MOLOPT-ae_soft

       Number of orbital shell sets:                                           2
       Number of orbital shells:                                              13
       Number of primitive Cartesian functions:                                5
       Number of Cartesian basis functions:                                   40
       Number of spherical basis functions:                                   35
       Norm type:                                                              2

       Normalised Cartesian orbitals:

                        Set   Shell   Orbital            Exponent    Coefficient

                          1       1    1s                0.024646      -0.078105
                                                         0.071007       0.213026
                                                         0.237636      -0.232469
                                                         0.680928       0.544799
                                                         1.933558      -1.060981

                          1       2    2s                0.024646       0.006228
                                                         0.071007       0.022458
                                                         0.237636       0.022101
                                                         0.680928       0.156290
                                                         1.933558       0.593777

                          1       3    3s                0.024646       0.023237
                                                         0.071007       0.033037
                                                         0.237636       0.065312
                                                         0.680928       0.047064
                                                         1.933558      -0.462606

                          1       4    4s                0.024646       0.005162
                                                         0.071007       0.074011
                                                         0.237636      -0.047989
                                                         0.680928      -0.668780
                                                         1.933558       0.448387

                          1       5    5s                0.024646       0.052262
                                                         0.071007      -0.012156
                                                         0.237636      -0.070069
                                                         0.680928       0.011411
                                                         1.933558       0.006013

                          1       6    2px               0.024646       0.000822
                                                         0.071007      -0.000886
                                                         0.237636       0.077898
                                                         0.680928      -1.218050
                                                         1.933558       5.053657
                          1       6    2py               0.024646       0.000822
                                                         0.071007      -0.000886
                                                         0.237636       0.077898
                                                         0.680928      -1.218050
                                                         1.933558       5.053657
                          1       6    2pz               0.024646       0.000822
                                                         0.071007      -0.000886
                                                         0.237636       0.077898
                                                         0.680928      -1.218050
                                                         1.933558       5.053657

                          1       7    3px               0.024646      -0.010239
                                                         0.071007      -0.021942
                                                         0.237636       0.080413
                                                         0.680928       0.093238
                                                         1.933558       0.147169
                          1       7    3py               0.024646      -0.010239
                                                         0.071007      -0.021942
                                                         0.237636       0.080413
                                                         0.680928       0.093238
                                                         1.933558       0.147169
                          1       7    3pz               0.024646      -0.010239
                                                         0.071007      -0.021942
                                                         0.237636       0.080413
                                                         0.680928       0.093238
                                                         1.933558       0.147169

                          1       8    4px               0.024646       0.000237
                                                         0.071007       0.023413
                                                         0.237636       0.129113
                                                         0.680928       0.121719
                                                         1.933558       0.036550
                          1       8    4py               0.024646       0.000237
                                                         0.071007       0.023413
                                                         0.237636       0.129113
                                                         0.680928       0.121719
                                                         1.933558       0.036550
                          1       8    4pz               0.024646       0.000237
                                                         0.071007       0.023413
                                                         0.237636       0.129113
                                                         0.680928       0.121719
                                                         1.933558       0.036550

                          1       9    5px               0.024646      -0.012357
                                                         0.071007       0.058147
                                                         0.237636       0.060042
                                                         0.680928       0.050984
                                                         1.933558       0.171511
                          1       9    5py               0.024646      -0.012357
                                                         0.071007       0.058147
                                                         0.237636       0.060042
                                                         0.680928       0.050984
                                                         1.933558       0.171511
                          1       9    5pz               0.024646      -0.012357
                                                         0.071007       0.058147
                                                         0.237636       0.060042
                                                         0.680928       0.050984
                                                         1.933558       0.171511

                          1      10    3dx2              0.024646      -0.000157
                                                         0.071007       0.006388
                                                         0.237636       0.091398
                                                         0.680928       0.100225
                                                         1.933558      -0.256537
                          1      10    3dxy              0.024646      -0.000271
                                                         0.071007       0.011064
                                                         0.237636       0.158306
                                                         0.680928       0.173596
                                                         1.933558      -0.444335
                          1      10    3dxz              0.024646      -0.000271
                                                         0.071007       0.011064
                                                         0.237636       0.158306
                                                         0.680928       0.173596
                                                         1.933558      -0.444335
                          1      10    3dy2              0.024646      -0.000157
                                                         0.071007       0.006388
                                                         0.237636       0.091398
                                                         0.680928       0.100225
                                                         1.933558      -0.256537
                          1      10    3dyz              0.024646      -0.000271
                                                         0.071007       0.011064
                                                         0.237636       0.158306
                                                         0.680928       0.173596
                                                         1.933558      -0.444335
                          1      10    3dz2              0.024646      -0.000157
                                                         0.071007       0.006388
                                                         0.237636       0.091398
                                                         0.680928       0.100225
                                                         1.933558      -0.256537

                          1      11    4dx2              0.024646      -0.000002
                                                         0.071007       0.016088
                                                         0.237636       0.000035
                                                         0.680928      -0.002278
                                                         1.933558      -0.014809
                          1      11    4dxy              0.024646      -0.000003
                                                         0.071007       0.027866
                                                         0.237636       0.000061
                                                         0.680928      -0.003946
                                                         1.933558      -0.025650
                          1      11    4dxz              0.024646      -0.000003
                                                         0.071007       0.027866
                                                         0.237636       0.000061
                                                         0.680928      -0.003946
                                                         1.933558      -0.025650
                          1      11    4dy2              0.024646      -0.000002
                                                         0.071007       0.016088
                                                         0.237636       0.000035
                                                         0.680928      -0.002278
                                                         1.933558      -0.014809
                          1      11    4dyz              0.024646      -0.000003
                                                         0.071007       0.027866
                                                         0.237636       0.000061
                                                         0.680928      -0.003946
                                                         1.933558      -0.025650
                          1      11    4dz2              0.024646      -0.000002
                                                         0.071007       0.016088
                                                         0.237636       0.000035
                                                         0.680928      -0.002278
                                                         1.933558      -0.014809

                          1      12    4fx3              0.024646      -0.000304
                                                         0.071007       0.004674
                                                         0.237636      -0.004905
                                                         0.680928      -0.023032
                                                         1.933558       0.088408
                          1      12    4fx2y             0.024646      -0.000679
                                                         0.071007       0.010451
                                                         0.237636      -0.010968
                                                         0.680928      -0.051501
                                                         1.933558       0.197686
                          1      12    4fx2z             0.024646      -0.000679
                                                         0.071007       0.010451
                                                         0.237636      -0.010968
                                                         0.680928      -0.051501
                                                         1.933558       0.197686
                          1      12    4fxy2             0.024646      -0.000679
                                                         0.071007       0.010451
                                                         0.237636      -0.010968
                                                         0.680928      -0.051501
                                                         1.933558       0.197686
                          1      12    4fxyz             0.024646      -0.001176
                                                         0.071007       0.018102
                                                         0.237636      -0.018996
                                                         0.680928      -0.089202
                                                         1.933558       0.342401
                          1      12    4fxz2             0.024646      -0.000679
                                                         0.071007       0.010451
                                                         0.237636      -0.010968
                                                         0.680928      -0.051501
                                                         1.933558       0.197686
                          1      12    4fy3              0.024646      -0.000304
                                                         0.071007       0.004674
                                                         0.237636      -0.004905
                                                         0.680928      -0.023032
                                                         1.933558       0.088408
                          1      12    4fy2z             0.024646      -0.000679
                                                         0.071007       0.010451
                                                         0.237636      -0.010968
                                                         0.680928      -0.051501
                                                         1.933558       0.197686
                          1      12    4fyz2             0.024646      -0.000679
                                                         0.071007       0.010451
                                                         0.237636      -0.010968
                                                         0.680928      -0.051501
                                                         1.933558       0.197686
                          1      12    4fz3              0.024646      -0.000304
                                                         0.071007       0.004674
                                                         0.237636      -0.004905
                                                         0.680928      -0.023032
                                                         1.933558       0.088408

                          2       1    1s         

     AE Potential information for                                            ALL

       Description:                                       All-electron potential
                                          Krack, Parrinello, PCCP 2, 2105 (2000)

       Gaussian exponent of the core charge distribution:               3.125000
       Electronic configuration (s p d ...):                           3   0   0

  2. Atomic kind: h                                     Number of atoms:       1

     Orbital Basis Set                                        aug-TZVP-MOLOPT-ae

       Number of orbital shell sets:                                           1
       Number of orbital shells:                                               9
       Number of primitive Cartesian functions:                                6
       Number of Cartesian basis functions:                                   25
       Number of spherical basis functions:                                   23
       Norm type:                                                              2

       Normalised Cartesian orbitals:

                        Set   Shell   Orbital            Exponent    Coefficient

                          1       1    1s                0.030000       0.000000
                                                         0.091371      -0.049397
                                                         0.293823      -0.051765
                                                         1.065127       0.831136
                                                         4.947701      -0.270539
                                                        34.177738      -6.423540

                          1       2    2s                0.030000       0.000000
                                                         0.091371      -0.041080
                                                         0.293823       0.227881
                                                         1.065127       0.154529
                                                         4.947701       0.528758
                                                        34.177738       3.211471

                          1       3    3s                0.030000       0.000000
                                                         0.091371       0.076395
                                                         0.293823       0.077306
                                                         1.065127       0.164523
                                                         4.947701      -0.040048
                                                        34.177738      -1.131577

                          1       4    4s                0.030000       0.043550
                                                         0.091371      -0.026138
                                                         0.293823      -0.246542
                                                         1.065127      -0.077212
                                                         4.947701       0.000000
                                                        34.177738       0.000000

                          1       5    2px               0.030000       0.000000
                                                         0.091371       0.008886
                                                         0.293823      -0.007684
                                                         1.065127       1.416453
                                                         4.947701       1.341091
                                                        34.177738     -11.084238
                          1       5    2py               0.030000       0.000000
                                                         0.091371       0.008886
                                                         0.293823      -0.007684
                                                         1.065127       1.416453
                                                         4.947701       1.341091
                                                        34.177738     -11.084238
                          1       5    2pz               0.030000       0.000000
                                                         0.091371       0.008886
                                                         0.293823      -0.007684
                                                         1.065127       1.416453
                                                         4.947701       1.341091
                                                        34.177738     -11.084238

                          1       6    3px               0.030000       0.000000
                                                         0.091371      -0.013062
                                                         0.293823       0.330130
                                                         1.065127       0.106963
                                                         4.947701      -0.549928
                                                        34.177738       9.643751
                          1       6    3py               0.030000       0.000000
                                                         0.091371      -0.013062
                                                         0.293823       0.330130
                                                         1.065127       0.106963
                                                         4.947701      -0.549928
                                                        34.177738       9.643751
                          1       6    3pz               0.030000       0.000000
                                                         0.091371      -0.013062
                                                         0.293823       0.330130
                                                         1.065127       0.106963
                                                         4.947701      -0.549928
                                                        34.177738       9.643751

                          1       7    4px               0.030000       0.014060
                                                         0.091371       0.022273
                                                         0.293823      -0.026384
                                                         1.065127       0.024249
                                                         4.947701       0.000000
                                                        34.177738       0.000000
                          1       7    4py               0.030000       0.014060
                                                         0.091371       0.022273
                                                         0.293823      -0.026384
                                                         1.065127       0.024249
                                                         4.947701       0.000000
                                                        34.177738       0.000000
                          1       7    4pz               0.030000       0.014060
                                                         0.091371       0.022273
                                                         0.293823      -0.026384
                                                         1.065127       0.024249
                                                         4.947701       0.000000
                                                        34.177738       0.000000

                          1       8    3dx2              0.030000       0.000000
                                                         0.091371      -0.004737
                                                         0.293823       0.052231
                                                         1.065127       1.617163
                                                         4.947701      -1.124420
                                                        34.177738       9.702470
                          1       8    3dxy              0.030000       0.000000
                                                         0.091371      -0.008204
                                                         0.293823       0.090468
                                                         1.065127       2.801009
                                                         4.947701      -1.947552
                                                        34.177738      16.805171
                          1       8    3dxz              0.030000       0.000000
                                                         0.091371      -0.008204
                                                         0.293823       0.090468
                                                         1.065127       2.801009
                                                         4.947701      -1.947552
                                                        34.177738      16.805171
                          1       8    3dy2              0.030000       0.000000
                                                         0.091371      -0.004737
                                                         0.293823       0.052231
                                                         1.065127       1.617163
                                                         4.947701      -1.124420
                                                        34.177738       9.702470
                          1       8    3dyz              0.030000       0.000000
                                                         0.091371      -0.008204
                                                         0.293823       0.090468
                                                         1.065127       2.801009
                                                         4.947701      -1.947552
                                                        34.177738      16.805171
                          1       8    3dz2              0.030000       0.000000
                                                         0.091371      -0.004737
                                                         0.293823       0.052231
                                                         1.065127       1.617163
                                                         4.947701      -1.124420
                                                        34.177738       9.702470

                          1       9    4dx2              0.030000       0.002444
                                                         0.091371       0.004703
                                                         0.293823       0.069647
                                                         1.065127       0.196246
                                                         4.947701       0.000000
                                                        34.177738       0.000000
                          1       9    4dxy              0.030000       0.004233
                                                         0.091371       0.008146
                                                         0.293823       0.120632
                                                         1.065127       0.339908
                                                         4.947701       0.000000
                                                        34.177738       0.000000
                          1       9    4dxz              0.030000       0.004233
                                                         0.091371       0.008146
                                                         0.293823       0.120632
                                                         1.065127       0.339908
                                                         4.947701       0.000000
                                                        34.177738       0.000000
                          1       9    4dy2              0.030000       0.002444
                                                         0.091371       0.004703
                                                         0.293823       0.069647
                                                         1.065127       0.196246
                                                         4.947701       0.000000
                                                        34.177738       0.000000
                          1       9    4dyz              0.030000       0.004233
                                                         0.091371       0.008146
                                                         0.293823       0.120632
                                                         1.065127       0.339908
                                                         4.947701       0.000000
                                                        34.177738       0.000000
                          1       9    4dz2              0.030000       0.002444
                                                         0.091371       0.004703
                                                         0.293823       0.069647
                                                         1.065127       0.196246
                                                         4.947701       0.000000
                                                        34.177738       0.000000

     RI Auxiliary Basis Set             RI_aug-TZVP-MOLOPT-ae_N_RI_023_s_p_d_f_g

       Number of orbital shell sets:                                           9
       Number of orbital shells:                                               9
       Number of primitive Cartesian functions:                                9
       Number of Cartesian basis functions:                                   25
       Number of spherical basis functions:                                   23
       Norm type:                                                              2

       Normalised Cartesian orbitals:

                        Set   Shell   Orbital            Exponent    Coefficient

                          1       1    5px               0.199704       0.190293
                          1       1    5py               0.199704       0.190293
                          1       1    5pz               0.199704       0.190293

                          2       1    8dx2              0.371061       0.290361
                          2       1    8dxy              0.371061       0.502921
                          2       1    8dxz              0.371061       0.502921
                          2       1    8dy2              0.371061       0.290361
                          2       1    8dyz              0.371061       0.502921
                          2       1    8dz2              0.371061       0.290361

                          3       1    1s                0.487032       0.415507

                          4       1    6px               0.587762       0.733571
                          4       1    6py               0.587762       0.733571
                          4       1    6pz               0.587762       0.733571

                          5       1    9dx2              1.486370       3.293301
                          5       1    9dxy              1.486370       5.704165
                          5       1    9dxz              1.486370       5.704165
                          5       1    9dy2              1.486370       3.293301
                          5       1    9dyz              1.486370       5.704165
                          5       1    9dz2              1.486370       3.293301

                          6       1    2s                1.774445       1.095739

                          7       1    7px               2.162097       3.737094
                          7       1    7py               2.162097       3.737094
                          7       1    7pz               2.162097       3.737094

                          8       1    3s                6.464982       2.889586

                          9       1    4s               23.554401       7.620161

       Atomic covalent radius [Angstrom]:                                  0.320

       Atomic van der Waals radius [Angstrom]:                             1.090

     The atoms of this atomic kind are PAW atoms (GAPW):
       Hard Gaussian function radius:                                      1.200
       Rho0 radius:                                                        1.200
       Maximum GTO radius used for PAW projector construction:            24.566

     GAPW Soft Basis Set                                 aug-TZVP-MOLOPT-ae_soft

       Number of orbital shell sets:                                           1
       Number of orbital shells:                                               9
       Number of primitive Cartesian functions:                                5
       Number of Cartesian basis functions:                                   25
       Number of spherical basis functions:                                   23
       Norm type:                                                              2

       Normalised Cartesian orbitals:

                        Set   Shell   Orbital            Exponent    Coefficient

                          1       1    1s                0.030000       0.000000
                                                         0.091371      -0.049397
                                                         0.293823      -0.051765
                                                         1.065127       0.831136
                                                         4.947701      -0.270539

                          1       2    2s                0.030000       0.000000
                                                         0.091371      -0.041080
                                                         0.293823       0.227881
                                                         1.065127       0.154529
                                                         4.947701       0.528758

                          1       3    3s                0.030000       0.000000
                                                         0.091371       0.076395
                                                         0.293823       0.077306
                                                         1.065127       0.164523
                                                         4.947701      -0.040048

                          1       4    4s                0.030000       0.043550
                                                         0.091371      -0.026138
                                                         0.293823      -0.246542
                                                         1.065127      -0.077212
                                                         4.947701       0.000000

                          1       5    2px               0.030000       0.000000
                                                         0.091371       0.008886
                                                         0.293823      -0.007684
                                                         1.065127       1.416453
                                                         4.947701       1.341091
                          1       5    2py               0.030000       0.000000
                                                         0.091371       0.008886
                                                         0.293823      -0.007684
                                                         1.065127       1.416453
                                                         4.947701       1.341091
                          1       5    2pz               0.030000       0.000000
                                                         0.091371       0.008886
                                                         0.293823      -0.007684
                                                         1.065127       1.416453
                                                         4.947701       1.341091

                          1       6    3px               0.030000       0.000000
                                                         0.091371      -0.013062
                                                         0.293823       0.330130
                                                         1.065127       0.106963
                                                         4.947701      -0.549928
                          1       6    3py               0.030000       0.000000
                                                         0.091371      -0.013062
                                                         0.293823       0.330130
                                                         1.065127       0.106963
                                                         4.947701      -0.549928
                          1       6    3pz               0.030000       0.000000
                                                         0.091371      -0.013062
                                                         0.293823       0.330130
                                                         1.065127       0.106963
                                                         4.947701      -0.549928

                          1       7    4px               0.030000       0.014060
                                                         0.091371       0.022273
                                                         0.293823      -0.026384
                                                         1.065127       0.024249
                                                         4.947701       0.000000
                          1       7    4py               0.030000       0.014060
                                                         0.091371       0.022273
                                                         0.293823      -0.026384
                                                         1.065127       0.024249
                                                         4.947701       0.000000
                          1       7    4pz               0.030000       0.014060
                                                         0.091371       0.022273
                                                         0.293823      -0.026384
                                                         1.065127       0.024249
                                                         4.947701       0.000000

                          1       8    3dx2              0.030000       0.000000
                                                         0.091371      -0.004737
                                                         0.293823       0.052231
                                                         1.065127       1.617163
                                                         4.947701      -1.124420
                          1       8    3dxy              0.030000       0.000000
                                                         0.091371      -0.008204
                                                         0.293823       0.090468
                                                         1.065127       2.801009
                                                         4.947701      -1.947552
                          1       8    3dxz              0.030000       0.000000
                                                         0.091371      -0.008204
                                                         0.293823       0.090468
                                                         1.065127       2.801009
                                                         4.947701      -1.947552
                          1       8    3dy2              0.030000       0.000000
                                                         0.091371      -0.004737
                                                         0.293823       0.052231
                                                         1.065127       1.617163
                                                         4.947701      -1.124420
                          1       8    3dyz              0.030000       0.000000
                                                         0.091371      -0.008204
                                                         0.293823       0.090468
                                                         1.065127       2.801009
                                                         4.947701      -1.947552
                          1       8    3dz2              0.030000       0.000000
                                                         0.091371      -0.004737
                                                         0.293823       0.052231
                                                         1.065127       1.617163
                                                         4.947701      -1.124420

                          1       9    4dx2              0.030000       0.002444
                                                         0.091371       0.004703
                                                         0.293823       0.069647
                                                         1.065127       0.196246
                                                         4.947701       0.000000
                          1       9    4dxy              0.030000       0.004233
                                                         0.091371       0.008146
                                                         0.293823       0.120632
                                                         1.065127       0.339908
                                                         4.947701       0.000000
                          1       9    4dxz              0.030000       0.004233
                                                         0.091371       0.008146
                                                         0.293823       0.120632
                                                         1.065127       0.339908
                                                         4.947701       0.000000
                          1       9    4dy2              0.030000       0.002444
                                                         0.091371       0.004703
                                                         0.293823       0.069647
                                                         1.065127       0.196246
                                                         4.947701       0.000000
                          1       9    4dyz              0.030000       0.004233
                                                         0.091371       0.008146
                                                         0.293823       0.120632
                                                         1.065127       0.339908
                                                         4.947701       0.000000
                          1       9    4dz2              0.030000       0.002444
                                                         0.091371       0.004703
                                                         0.293823       0.069647
                                                         1.065127       0.196246
                                                         4.947701       0.000000

     AE Potential information for                                            ALL

       Description:                                       All-electron potential
                                          Krack, Parrinello, PCCP 2, 2105 (2000)

       Gaussian exponent of the core charge distribution:              12.500000
       Electronic configuration (s p d ...):                           1   0   0


 MOLECULE KIND INFORMATION


 All atoms are their own molecule, skipping detailed information


 TOTAL NUMBERS AND MAXIMUM NUMBERS

  Total number of            - Atomic kinds:                                   2
                             - Atoms:                                          2
                             - Shell sets:                                     3
                             - Shells:                                        22
                             - Primitive Cartesian functions:                 17
                             - Cartesian basis functions:                     65
                             - Spherical basis functions:                     58

  Maximum angular momentum of the orbital basis functions:                     3


 MODULE QUICKSTEP: ATOMIC COORDINATES IN ANGSTROM

   Atom Kind Element         X             Y             Z       Z(eff)     Mass
[...]
 * / \                                                         mp2_ri_2c.F:892 *
 *******************************************************************************


 ===== Routine Calling Stack ===== 

            7 compute_2c_integrals
            6 get_2c_integrals
            5 mp2_ri_gpw_compute_in
            4 mp2_gpw_main
            3 mp2_main
            2 qs_energies
            1 CP2K

 *******************************************************************************
 *   ___                                                                       *
 *  /   \                                                                      *
 * [ABORT]                                                                     *
 *  \___/   Product of block size and number of RI functions should not exceed *
 *    |                          total number of processes                     *
 *  O/|                                                                        *
 * /| |                                                                        *
 * / \                                                         mp2_ri_2c.F:892 *
 *******************************************************************************


 ===== Routine Calling Stack ===== 

            7 compute_2c_integrals
            6 get_2c_integrals
            5 mp2_ri_gpw_compute_in
            4 mp2_gpw_main
            3 mp2_main
            2 qs_energies
            1 CP2K

 *******************************************************************************
 *   ___                                                                       *
 *  /   \                                                                      *
 * [ABORT]                                                                     *
 *  \___/   Product of block size and number of RI functions should not exceed *
 *    |                          total number of processes                     *
 *  O/|                                                                        *
 * /| |                                                                        *
 * / \                                                         mp2_ri_2c.F:892 *
 *******************************************************************************


 ===== Routine Calling Stack ===== 

            7 compute_2c_integrals
            6 get_2c_integrals
            5 mp2_ri_gpw_compute_in
            4 mp2_gpw_main
            3 mp2_main
            2 qs_energies
            1 CP2K

 *******************************************************************************
 *   ___                                                                       *
 *  /   \                                                                      *
 * [ABORT]                                                                     *
 *  \___/   Product of block size and number of RI functions should not exceed *
 *    |                          total number of processes                     *
 *  O/|                                                                        *
 * /| |                                                                        *
 * / \                                                         mp2_ri_2c.F:892 *
 *******************************************************************************


 ===== Routine Calling Stack ===== 

            7 compute_2c_integrals
            6 get_2c_integrals
            5 mp2_ri_gpw_compute_in
            4 mp2_gpw_main
            3 mp2_main
            2 qs_energies
            1 CP2K

 *******************************************************************************
 *   ___                                                                       *
 *  /   \                                                                      *
 * [ABORT]                                                                     *
 *  \___/   Product of block size and number of RI functions should not exceed *
 *    |                          total number of processes                     *
 *  O/|                                                                        *
 * /| |                                                                        *
 * / \                                                         mp2_ri_2c.F:892 *
 *******************************************************************************


 ===== Routine Calling Stack ===== 

            7 compute_2c_integrals
            6 get_2c_integrals
            5 mp2_ri_gpw_compute_in
            4 mp2_gpw_main
            3 mp2_main
            2 qs_energies
            1 CP2K

 *******************************************************************************
 *   ___                                                                       *
 *  /   \                                                                      *
 * [ABORT]                                                                     *
 *  \___/   Product of block size and number of RI functions should not exceed *
 *    |                          total number of processes                     *
 *  O/|                                                                        *
 * /| |                                                                        *
 * / \                                                         mp2_ri_2c.F:892 *
 *******************************************************************************


 ===== Routine Calling Stack ===== 

            7 compute_2c_integrals
            6 get_2c_integrals
            5 mp2_ri_gpw_compute_in
            4 mp2_gpw_main
            3 mp2_main
            2 qs_energies
            1 CP2K

 *******************************************************************************
 *   ___                                                                       *
 *  /   \                                                                      *
 * [ABORT]                                                                     *
 *  \___/   Product of block size and number of RI functions should not exceed *
 *    |                          total number of processes                     *
 *  O/|                                                                        *
 * /| |                                                                        *
 * / \                                                         mp2_ri_2c.F:892 *
 *******************************************************************************


 ===== Routine Calling Stack ===== 

            7 compute_2c_integrals
            6 get_2c_integrals
            5 mp2_ri_gpw_compute_in
            4 mp2_gpw_main
            3 mp2_main
            2 qs_energies
            1 CP2K

 *******************************************************************************
 *   ___                                                                       *
 *  /   \                                                                      *
 * [ABORT]                                                                     *
 *  \___/   Product of block size and number of RI functions should not exceed *
 *    |                          total number of processes                     *
 *  O/|                                                                        *
 * /| |                                                                        *
 * / \                                                         mp2_ri_2c.F:892 *
 *******************************************************************************


 ===== Routine Calling Stack ===== 

            7 compute_2c_integrals
            6 get_2c_integrals
            5 mp2_ri_gpw_compute_in
            4 mp2_gpw_main
            3 mp2_main
            2 qs_energies
            1 CP2K

 *******************************************************************************
 *   ___                                                                       *
 *  /   \                                                                      *
 * [ABORT]                                                                     *
 *  \___/   Product of block size and number of RI functions should not exceed *
 *    |                          total number of processes                     *
 *  O/|                                                                        *
 * /| |                                                                        *
 * / \                                                         mp2_ri_2c.F:892 *
 *******************************************************************************


 ===== Routine Calling Stack ===== 

            7 compute_2c_integrals
            6 get_2c_integrals
            5 mp2_ri_gpw_compute_in
            4 mp2_gpw_main
            3 mp2_main
            2 qs_energies
            1 CP2K

 *******************************************************************************
 *   ___                                                                       *
 *  /   \                                                                      *
 * [ABORT]                                                                     *
 *  \___/   Product of block size and number of RI functions should not exceed *
 *    |                          total number of processes                     *
 *  O/|                                                                        *
 * /| |                                                                        *
 * / \                                                         mp2_ri_2c.F:892 *
 *******************************************************************************


 ===== Routine Calling Stack ===== 

            7 compute_2c_integrals
            6 get_2c_integrals
            5 mp2_ri_gpw_compute_in
            4 mp2_gpw_main
            3 mp2_main
            2 qs_energies
            1 CP2K

 *******************************************************************************
 *   ___                                                                       *
 *  /   \                                                                      *
 * [ABORT]                                                                     *
 *  \___/   Product of block size and number of RI functions should not exceed *
 *    |                          total number of processes                     *
 *  O/|                                                                        *
 * /| |                                                                        *
 * / \                                                         mp2_ri_2c.F:892 *
 *******************************************************************************


 ===== Routine Calling Stack ===== 

            7 compute_2c_integrals
            6 get_2c_integrals
            5 mp2_ri_gpw_compute_in
            4 mp2_gpw_main
            3 mp2_main
            2 qs_energies
            1 CP2K

 *******************************************************************************
 *   ___                                                                       *
 *  /   \                                                                      *
 * [ABORT]                                                                     *
 *  \___/   Product of block size and number of RI functions should not exceed *
 *    |                          total number of processes                     *
 *  O/|                                                                        *
 * /| |                                                                        *
 * / \                                                         mp2_ri_2c.F:892 *
 *******************************************************************************


 ===== Routine Calling Stack ===== 

            7 compute_2c_integrals
            6 get_2c_integrals
            5 mp2_ri_gpw_compute_in
            4 mp2_gpw_main
            3 mp2_main
            2 qs_energies
            1 CP2K

 *******************************************************************************
 *   ___                                                                       *
 *  /   \                                                                      *
 * [ABORT]                                                                     *
 *  \___/   Product of block size and number of RI functions should not exceed *
 *    |                          total number of processes                     *
 *  O/|                                                                        *
 * /| |                                                                        *
 * / \                                                         mp2_ri_2c.F:892 *
 *******************************************************************************


 ===== Routine Calling Stack ===== 

            7 compute_2c_integrals
            6 get_2c_integrals
            5 mp2_ri_gpw_compute_in
            4 mp2_gpw_main
            3 mp2_main
            2 qs_energies
            1 CP2K

 *******************************************************************************
 *   ___                                                                       *
 *  /   \                                                                      *
 * [ABORT]                                                                     *
 *  \___/   Product of block size and number of RI functions should not exceed *
 *    |                          total number of processes                     *
 *  O/|                                                                        *
 * /| |                                                                        *
 * / \                                                         mp2_ri_2c.F:892 *
 *******************************************************************************


 ===== Routine Calling Stack ===== 

            7 compute_2c_integrals
            6 get_2c_integrals
            5 mp2_ri_gpw_compute_in
            4 mp2_gpw_main
            3 mp2_main
            2 qs_energies
            1 CP2K
                     *
 *  O/|                                                                        *
 * /| |                                                                        *
 * / \                                                         mp2_ri_2c.F:892 *
 *******************************************************************************


 ===== Routine Calling Stack ===== 

            7 compute_2c_integrals
            6 get_2c_integrals
            5 mp2_ri_gpw_compute_in
            4 mp2_gpw_main
            3 mp2_main
            2 qs_energies
            1 CP2K

 *******************************************************************************
 *   ___                                                                       *
 *  /   \                                                                      *
 * [ABORT]                                                                     *
 *  \___/   Product of block size and number of RI functions should not exceed *
 *    |                          total number of processes                     *
 *  O/|                                                                        *
 * /| |                                                                        *
 * / \                                                         mp2_ri_2c.F:892 *
 *******************************************************************************


 ===== Routine Calling Stack ===== 

            7 compute_2c_integrals
            6 get_2c_integrals
            5 mp2_ri_gpw_compute_in
            4 mp2_gpw_main
            3 mp2_main
            2 qs_energies
            1 CP2K

 *******************************************************************************
 *   ___                                                                       *
 *  /   \                                                                      *
 * [ABORT]                                                                     *
 *  \___/   Product of block size and number of RI functions should not exceed *
 *    |                          total number of processes                     *
 *  O/|                                                                        *
 * /| |                                                                        *
 * / \                                                         mp2_ri_2c.F:892 *
 *******************************************************************************


 ===== Routine Calling Stack ===== 

            7 compute_2c_integrals
            6 get_2c_integrals
            5 mp2_ri_gpw_compute_in
            4 mp2_gpw_main
            3 mp2_main
            2 qs_energies
            1 CP2K
 / \                                                         mp2_ri_2c.F:892 *
 *******************************************************************************


 ===== Routine Calling Stack ===== 

            7 compute_2c_integrals
            6 get_2c_integrals
            5 mp2_ri_gpw_compute_in
            4 mp2_gpw_main
            3 mp2_main
            2 qs_energies
            1 CP2K
            5 mp2_ri_gpw_compute_in
            4 mp2_gpw_main
            3 mp2_main
            2 qs_energies
            1 CP2K

 *******************************************************************************
 *   ___                                                                       *
 *  /   \                                                                      *
 * [ABORT]                                                                     *
 *  \___/   Product of block size and number of RI functions should not exceed *
 *    |                          total number of processes                     *
 *  O/|                                                                        *
 * /| |                                                                        *
 * / \                                                         mp2_ri_2c.F:892 *
 *******************************************************************************


 ===== Routine Calling Stack ===== 

            7 compute_2c_integrals
            6 get_2c_integrals
            5 mp2_ri_gpw_compute_in
            4 mp2_gpw_main
            3 mp2_main
            2 qs_energies
            1 CP2K
                                                    mp2_ri_2c.F:892 *
 *******************************************************************************


 ===== Routine Calling Stack ===== 

            7 compute_2c_integrals
            6 get_2c_integrals
            5 mp2_ri_gpw_compute_in
            4 mp2_gpw_main
            3 mp2_main
            2 qs_energies
            1 CP2K
            4 mp2_gpw_main
            3 mp2_main
            2 qs_energies
            1 CP2K
            3 mp2_main
            2 qs_energies
            1 CP2K

 *******************************************************************************
 *   ___                                                                       *
 *  /   \                                                                      *
 * [ABORT]                                                                     *
 *  \___/   Product of block size and number of RI functions should not exceed *
 *    |                          total number of processes                     *
 *  O/|                                                                        *
 * /| |                                                                        *
 * / \                                                         mp2_ri_2c.F:892 *
 *******************************************************************************


 ===== Routine Calling Stack ===== 

            7 compute_2c_integrals
            6 get_2c_integrals
            5 mp2_ri_gpw_compute_in
            4 mp2_gpw_main
            3 mp2_main
            2 qs_energies
            1 CP2K
            5 mp2_ri_gpw_compute_in
            4 mp2_gpw_main
            3 mp2_main
            2 qs_energies
            1 CP2K
