 DBCSR| CPU Multiplication driver                                           BLAS (U)
 DBCSR| Multrec recursion limit                                              512 (U)
 DBCSR| Multiplication stack size                                           1000 (D)
 DBCSR| Maximum elements for images                                    UNLIMITED (U)
 DBCSR| Multiplicative factor virtual images                                   1 (U)
 DBCSR| Use multiplication densification                                       T (D)
 DBCSR| Multiplication size stacks                                             3 (U)
 DBCSR| Use memory pool for CPU allocation                                     F (U)
 DBCSR| Number of 3D layers                                               SINGLE (U)
 DBCSR| Use MPI memory allocation                                              F (U)
 DBCSR| Use RMA algorithm                                                      F (U)
 DBCSR| Use Communication thread                                               T (U)
 DBCSR| Communication thread load                                             75 (D)
 DBCSR| MPI: My process id                                                     0
 DBCSR| MPI: Number of processes                                              24
 DBCSR| OMP: Current number of threads                                         4
 DBCSR| OMP: Max number of threads                                             4
 DBCSR| Split modifier for TAS multiplication algorithm                  1.0E+00 (U)


  **** **** ******  **  PROGRAM STARTED AT               2025-03-04 07:50:32.092
 ***** ** ***  *** **   PROGRAM STARTED ON                          i05r09c01s04
 **    ****   ******    PROGRAM STARTED BY                               di38fab
 ***** **    ** ** **   PROGRAM PROCESS ID                               1642616
  **** **  *******  **  PROGRAM STARTED IN /hppfs/scratch/04/di38fab/05_MOL/W4-1
                                           1+ALK/bn3pi/DZVP

 CP2K| version string:                 CP2K version 2025.1 (Development Version)
 CP2K| source code revision number:                                  git:47877ba
 CP2K| cp2kflags: omp libint fftw3 libxc parallel scalapack max_contr=4         
 CP2K| is freely available from                            https://www.cp2k.org/
 CP2K| Program compiled at                          Thu Feb 20 16:00:34 CET 2025
 CP2K| Program compiled on                                               login04
 CP2K| Program compiled for                                        Supermuc-foss
 CP2K| Data directory path          /hppfs/work/pn36zo/di38fab/newcp2k/cp2k/data
 CP2K| Input file name                                                    GW.inp

 GLOBAL| Force Environment number                                              1
 GLOBAL| Basis set file name            /hppfs/scratch/04/di38fab/04_TMD/BASIS_A
 GLOBAL| Potential file name            /hppfs/work/pn36zo/di38fab/cp2k/data/ALL
 GLOBAL| MM Potential file name                                     MM_POTENTIAL
 GLOBAL| Coordinate file name                                      __STD_INPUT__
 GLOBAL| Method name                                                        CP2K
 GLOBAL| Project name                                                       MoS2
 GLOBAL| Run type                                                         ENERGY
 GLOBAL| FFT library                                                       FFTW3
 GLOBAL| Diagonalization library                                       ScaLAPACK
 GLOBAL| DGEMM library                                                      BLAS
 GLOBAL| Orthonormality check for eigenvectors                          DISABLED
 GLOBAL| Matrix multiplication library                                 ScaLAPACK
 GLOBAL| All-to-all communication in single precision                          F
 GLOBAL| FFTs using library dependent lengths                                  F
 GLOBAL| Grid backend                                                       AUTO
 GLOBAL| Global print level                                               MEDIUM
 GLOBAL| MPI I/O enabled                                                       T
 GLOBAL| Total number of message passing processes                            24
 GLOBAL| Number of threads for this process                                    4
 GLOBAL| This output is from process                                           0
 GLOBAL| OpenMP stack size per thread (OMP_STACKSIZE)                    default
 GLOBAL| CPU model name             Intel(R) Xeon(R) Platinum 8174 CPU @ 3.10GHz

 MEMORY| system memory details [Kb]
 MEMORY|                        rank 0           min           max       average
 MEMORY| MemTotal             98436664      98436664      98436664      98436664
 MEMORY| MemFree              84038528      84033524      84038528      84036026
 MEMORY| Buffers                     0             0             0             0
 MEMORY| Cached                2402472       2402472       2410592       2406532
 MEMORY| Slab                  1238872       1238872       1255604       1247238
 MEMORY| SReclaimable           271520        271520        280028        275774
 MEMORY| MemLikelyFree        86712520      86712520      86724144      86718332


 *** Fundamental physical constants (SI units) ***

 *** Literature: B. J. Mohr and B. N. Taylor,
 ***             CODATA recommended values of the fundamental physical
 ***             constants: 2006, Web Version 5.1
 ***             http://physics.nist.gov/constants

 Speed of light in vacuum [m/s]                             2.99792458000000E+08
 Magnetic constant or permeability of vacuum [N/A**2]       1.25663706143592E-06
 Electric constant or permittivity of vacuum [F/m]          8.85418781762039E-12
 Planck constant (h) [J*s]                                  6.62606896000000E-34
 Planck constant (h-bar) [J*s]                              1.05457162825177E-34
 Elementary charge [C]                                      1.60217648700000E-19
 Electron mass [kg]                                         9.10938215000000E-31
 Electron g factor [ ]                                     -2.00231930436220E+00
 Proton mass [kg]                                           1.67262163700000E-27
 Fine-structure constant                                    7.29735253760000E-03
 Rydberg constant [1/m]                                     1.09737315685270E+07
 Avogadro constant [1/mol]                                  6.02214179000000E+23
 Boltzmann constant [J/K]                                   1.38065040000000E-23
 Atomic mass unit [kg]                                      1.66053878200000E-27
 Bohr radius [m]                                            5.29177208590000E-11

 *** Conversion factors ***

 [u] -> [a.u.]                                              1.82288848426455E+03
 [Angstrom] -> [Bohr] = [a.u.]                              1.88972613288564E+00
 [a.u.] = [Bohr] -> [Angstrom]                              5.29177208590000E-01
 [a.u.] -> [s]                                              2.41888432650478E-17
 [a.u.] -> [fs]                                             2.41888432650478E-02
 [a.u.] -> [J]                                              4.35974393937059E-18
 [a.u.] -> [N]                                              8.23872205491840E-08
 [a.u.] -> [K]                                              3.15774647902944E+05
 [a.u.] -> [kJ/mol]                                         2.62549961709828E+03
 [a.u.] -> [kcal/mol]                                       6.27509468713739E+02
 [a.u.] -> [Pa]                                             2.94210107994716E+13
 [a.u.] -> [bar]                                            2.94210107994716E+08
 [a.u.] -> [atm]                                            2.90362800883016E+08
 [a.u.] -> [eV]                                             2.72113838565563E+01
 [a.u.] -> [Hz]                                             6.57968392072181E+15
 [a.u.] -> [1/cm] (wave numbers)                            2.19474631370540E+05
 [a.u./Bohr**2] -> [1/cm]                                   5.14048714338585E+03
 

 CELL_TOP| Volume [angstrom^3]:                                     27000.000000
 CELL_TOP| Vector a [angstrom    30.000     0.000     0.000   |a| =    30.000000
 CELL_TOP| Vector b [angstrom     0.000    30.000     0.000   |b| =    30.000000
 CELL_TOP| Vector c [angstrom     0.000     0.000    30.000   |c| =    30.000000
 CELL_TOP| Angle (b,c), alpha [degree]:                                90.000000
 CELL_TOP| Angle (a,c), beta  [degree]:                                90.000000
 CELL_TOP| Angle (a,b), gamma [degree]:                                90.000000
 CELL_TOP| Numerically orthorhombic:                                         YES
 CELL_TOP| Periodicity                                                      NONE

 GENERATE|  Preliminary Number of Bonds generated:                             0
 GENERATE|  Achieved consistency in connectivity generation.

 CELL| Volume [angstrom^3]:                                         27000.000000
 CELL| Vector a [angstrom]:      30.000     0.000     0.000   |a| =    30.000000
 CELL| Vector b [angstrom]:       0.000    30.000     0.000   |b| =    30.000000
 CELL| Vector c [angstrom]:       0.000     0.000    30.000   |c| =    30.000000
 CELL| Angle (b,c), alpha [degree]:                                    90.000000
 CELL| Angle (a,c), beta  [degree]:                                    90.000000
 CELL| Angle (a,b), gamma [degree]:                                    90.000000
 CELL| Numerically orthorhombic:                                             YES
 CELL| Periodicity                                                          NONE

 CELL_REF| Volume [angstrom^3]:                                     27000.000000
 CELL_REF| Vector a [angstrom    30.000     0.000     0.000   |a| =    30.000000
 CELL_REF| Vector b [angstrom     0.000    30.000     0.000   |b| =    30.000000
 CELL_REF| Vector c [angstrom     0.000     0.000    30.000   |c| =    30.000000
 CELL_REF| Angle (b,c), alpha [degree]:                                90.000000
 CELL_REF| Angle (a,c), beta  [degree]:                                90.000000
 CELL_REF| Angle (a,b), gamma [degree]:                                90.000000
 CELL_REF| Numerically orthorhombic:                                         YES
 CELL_REF| Periodicity                                                      NONE

 *******************************************************************************
 *******************************************************************************
 **                                                                           **
 **     #####                         ##              ##                      **
 **    ##   ##            ##          ##              ##                      **
 **   ##     ##                       ##            ######                    **
 **   ##     ##  ##   ##  ##   #####  ##  ##   ####   ##    #####    #####    **
 **   ##     ##  ##   ##  ##  ##      ## ##   ##      ##   ##   ##  ##   ##   **
 **   ##  ## ##  ##   ##  ##  ##      ####     ###    ##   ######   ######    **
 **    ##  ###   ##   ##  ##  ##      ## ##      ##   ##   ##       ##        **
 **     #######   #####   ##   #####  ##  ##  ####    ##    #####   ##        **
 **           ##                                                    ##        **
 **                                                                           **
 **                                                ... make the atoms dance   **
 **                                                                           **
 **            Copyright (C) by CP2K developers group (2000-2025)             **
 **                      J. Chem. Phys. 152, 194103 (2020)                    **
 **                                                                           **
 *******************************************************************************

 DFT| Spin restricted Kohn-Sham (RKS) calculation                            RKS
 DFT| Multiplicity                                                             1
 DFT| Number of spin states                                                    1
 DFT| Charge                                                                   0
 DFT| Self-interaction correction (SIC)                                       NO
 DFT| Cutoffs: density                                              1.000000E-10
 DFT|          gradient                                             1.000000E-10
 DFT|          tau                                                  1.000000E-10
 DFT|          cutoff_smoothing_range                               0.000000E+00
 DFT| XC density smoothing                                                  NONE
 DFT| XC derivatives                                                          PW

 FUNCTIONAL| PBE:
 FUNCTIONAL| J.P.Perdew, K.Burke, M.Ernzerhof, Phys. Rev. Letter, vol. 77, n 18,
 FUNCTIONAL|  pp. 3865-3868, (1996)sx=0.750sc=1.000{spin unpolarized}           


 QS| Method:                                                                GAPW
 QS| Density plane wave grid type                        NON-SPHERICAL FULLSPACE
 QS| Number of grid levels:                                                    4
 QS| Density cutoff [a.u.]:                                                250.0
 QS| Multi grid cutoff [a.u.]: 1) grid level                               250.0
 QS|                           2) grid level                                83.3
 QS|                           3) grid level                                27.8
 QS|                           4) grid level                                 9.3
 QS| Grid level progression factor:                                          3.0
 QS| Relative density cutoff [a.u.]:                                        50.0
 QS| Interaction thresholds: eps_pgf_orb:                                1.0E-12
 QS|                         eps_filter_matrix:                          0.0E+00
 QS|                         eps_core_charge:                            1.0E-14
 QS|                         eps_rho_gspace:                             1.0E-12
 QS|                         eps_rho_rspace:                             1.0E-12
 QS|                         eps_gvg_rspace:                             1.0E-06
 QS|                         eps_ppl:                                    1.0E-02
 QS|                         eps_ppnl:                                   1.0E-08
 QS| GAPW|      One center basis from orbital basis primitives
 QS| GAPW|                   eps_fit:                                    1.0E-04
 QS| GAPW|                   eps_iso:                                    1.0E-12
 QS| GAPW|                   eps_svd:                                    1.0E-08
 QS| GAPW|                   eps_cpc:                                    1.0E-12
 QS| GAPW|   atom-r-grid: quadrature:                                     GC_LOG
 QS| GAPW|      atom-s-grid:  max l :                                          6
 QS| GAPW|      max_l_rho0 :                                                   2


 ATOMIC KIND INFORMATION

  1. Atomic kind: B                                     Number of atoms:       1

     Orbital Basis Set                                        aug-DZVP-MOLOPT-ae

       Number of orbital shell sets:                                           2
       Number of orbital shells:                                              10
       Number of primitive Cartesian functions:                               12
       Number of Cartesian basis functions:                                   35
       Number of spherical basis functions:                                   30
       Norm type:                                                              2

       Normalised Cartesian orbitals:

                        Set   Shell   Orbital            Exponent    Coefficient

                          1       1    2s                0.082134       0.085473
                                                         0.140000       0.049675
                                                         0.279625      -0.030750
                                                         0.881274       0.022030
                                                         4.510873       0.000000

                          1       2    3px               0.082134      -0.004879
                                                         0.140000       0.000000
                                                         0.279625      -0.151722
                                                         0.881274      -0.583957
                                                         4.510873      -1.036243
                          1       2    3py               0.082134      -0.004879
                                                         0.140000       0.000000
                                                         0.279625      -0.151722
                                                         0.881274      -0.583957
                                                         4.510873      -1.036243
                          1       2    3pz               0.082134      -0.004879
                                                         0.140000       0.000000
                                                         0.279625      -0.151722
                                                         0.881274      -0.583957
                                                         4.510873      -1.036243

                          1       3    4px               0.082134       0.052233
                                                         0.140000       0.000000
                                                         0.279625       0.094300
                                                         0.881274      -0.581323
                                                         4.510873      -0.510604
                          1       3    4py               0.082134       0.052233
                                                         0.140000       0.000000
                                                         0.279625       0.094300
                                                         0.881274      -0.581323
                                                         4.510873      -0.510604
                          1       3    4pz               0.082134       0.052233
                                                         0.140000       0.000000
                                                         0.279625       0.094300
                                                         0.881274      -0.581323
                                                         4.510873      -0.510604

                          1       4    5px               0.082134       0.024659
                                                         0.140000       0.076570
                                                         0.279625      -0.053289
                                                         0.881274       0.410720
                                                         4.510873       0.000000
                          1       4    5py               0.082134       0.024659
                                                         0.140000       0.076570
                                                         0.279625      -0.053289
                                                         0.881274       0.410720
                                                         4.510873       0.000000
                          1       4    5pz               0.082134       0.024659
                                                         0.140000       0.076570
                                                         0.279625      -0.053289
                                                         0.881274       0.410720
                                                         4.510873       0.000000

                          1       5    4dx2              0.082134       0.000404
                                                         0.140000       0.000000
                                                         0.279625       0.111576
                                                         0.881274       0.641739
                                                         4.510873      -0.272354
                          1       5    4dxy              0.082134       0.000700
                                                         0.140000       0.000000
                                                         0.279625       0.193255
                                                         0.881274       1.111524
                                                         4.510873      -0.471731
                          1       5    4dxz              0.082134       0.000700
                                                         0.140000       0.000000
                                                         0.279625       0.193255
                                                         0.881274       1.111524
                                                         4.510873      -0.471731
                          1       5    4dy2              0.082134       0.000404
                                                         0.140000       0.000000
                                                         0.279625       0.111576
                                                         0.881274       0.641739
                                                         4.510873      -0.272354
                          1       5    4dyz              0.082134       0.000700
                                                         0.140000       0.000000
                                                         0.279625       0.193255
                                                         0.881274       1.111524
                                                         4.510873      -0.471731
                          1       5    4dz2              0.082134       0.000404
                                                         0.140000       0.000000
                                                         0.279625       0.111576
                                                         0.881274       0.641739
                                                         4.510873      -0.272354

                          1       6    5dx2              0.082134       0.036596
                                                         0.140000      -0.054919
                                                         0.279625      -0.008802
                                                         0.881274      -0.232953
                                                         4.510873       0.000000
                          1       6    5dxy              0.082134       0.063387
                                                         0.140000      -0.095122
                                                         0.279625      -0.015246
                                                         0.881274      -0.403486
                                                         4.510873       0.000000
                          1       6    5dxz              0.082134       0.063387
                                                         0.140000      -0.095122
                                                         0.279625      -0.015246
                                                         0.881274      -0.403486
                                                         4.510873       0.000000
                          1       6    5dy2              0.082134       0.036596
                                                         0.140000      -0.054919
                                                         0.279625      -0.008802
                                                         0.881274      -0.232953
                                                         4.510873       0.000000
                          1       6    5dyz              0.082134       0.063387
                                                         0.140000      -0.095122
                                                         0.279625      -0.015246
                                                         0.881274      -0.403486
                                                         4.510873       0.000000
                          1       6    5dz2              0.082134       0.036596
                                                         0.140000      -0.054919
                                                         0.279625      -0.008802
                                                         0.881274      -0.232953
                                                         4.510873       0.000000

                          1       7    5fx3              0.082134      -0.000468
                                                         0.140000       0.012301
                                                         0.279625       0.033988
                                                         0.881274       0.068820
                                                         4.510873       0.000000
                          1       7    5fx2y             0.082134      -0.001048
                                                         0.140000       0.027506
                                                         0.279625       0.075998
                                                         0.881274       0.153886
                                                         4.510873       0.000000
                          1       7    5fx2z             0.082134      -0.001048
                                                         0.140000       0.027506
                                                         0.279625       0.075998
                                                         0.881274       0.153886
                                                         4.510873       0.000000
                          1       7    5fxy2             0.082134      -0.001048
                                                         0.140000       0.027506
                                                         0.279625       0.075998
                                                         0.881274       0.153886
                                                         4.510873       0.000000
                          1       7    5fxyz             0.082134      -0.001814
                                                         0.140000       0.047643
                                                         0.279625       0.131633
                                                         0.881274       0.266539
                                                         4.510873       0.000000
                          1       7    5fxz2             0.082134      -0.001048
                                                         0.140000       0.027506
                                                         0.279625       0.075998
                                                         0.881274       0.153886
                                                         4.510873       0.000000
                          1       7    5fy3              0.082134      -0.000468
                                                         0.140000       0.012301
                                                         0.279625       0.033988
                                                         0.881274       0.068820
                                                         4.510873       0.000000
                          1       7    5fy2z             0.082134      -0.001048
                                                         0.140000       0.027506
                                                         0.279625       0.075998
                                                         0.881274       0.153886
                                                         4.510873       0.000000
                          1       7    5fyz2             0.082134      -0.001048
                                                         0.140000       0.027506
                                                         0.279625       0.075998
                                                         0.881274       0.153886
                                                         4.510873       0.000000
                          1       7    5fz3              0.082134      -0.000468
                                                         0.140000       0.012301
                                                         0.279625       0.033988
                                                         0.881274       0.068820
                                                         4.510873       0.000000

                          2       1    1s              839.324562      -0.573042
                                                       126.174643      -1.097170
                                                        28.339532      -1.625259
                                                         7.329111      -1.470436
                                                         2.208031      -0.468381
                                                         0.410209      -0.026981
                                                         0.151694      -0.023850

                          2       2    2s              839.324562       0.050684
                                                       126.174643      -0.115654
                                                        28.339532      -0.168560
                                                         7.329111      -0.289389
                                                         2.208031      -0.246292
                                                         0.410209       0.238157
                                                         0.151694       0.084355

                          2       3    3s              839.324562      -2.590681
                                                       126.174643       0.127370
                                                        28.339532      -1.260776
                                                         7.329111      -0.567183
                                                         2.208031      -0.073452
                                                         0.410209      -0.458063
                                                         0.151694       0.280188

     RI Auxiliary Basis Set             RI_aug-DZVP-MOLOPT-ae_N_RI_045_s_p_d_f_g

       Number of orbital shell sets:                                          15
       Number of orbital shells:                                              15
       Number of primitive Cartesian functions:                               15
       Number of Cartesian basis functions:                                   53
       Number of spherical basis functions:                                   45
       Norm type:                                                              2

       Normalised Cartesian orbitals:

                        Set   Shell   Orbital            Exponent    Coefficient

                          1       1   12dx2              0.161461       0.067691
                          1       1   12dxy              0.161461       0.117243
                          1       1   12dxz              0.161461       0.117243
                          1       1   12dy2              0.161461       0.067691
                          1       1   12dyz              0.161461       0.117243
                          1       1   12dz2              0.161461       0.067691

                          2       1    1s                0.171870       0.190244

                          3       1    7px               0.228223       0.224848
                          3       1    7py               0.228223       0.224848
                          3       1    7pz               0.228223       0.224848

                          4       1   14fx3              0.342259       0.131903
                          4       1   14fx2y             0.342259       0.294944
                          4       1   14fx2z             0.342259       0.294944
                          4       1   14fxy2             0.342259       0.294944
                          4       1   14fxyz             0.342259       0.510857
                          4       1   14fxz2             0.342259       0.294944
                          4       1   14fy3              0.342259       0.131903
                          4       1   14fy2z             0.342259       0.294944
                          4       1   14fyz2             0.342259       0.294944
                          4       1   14fz3              0.342259       0.131903

                          5       1    2s                0.348083       0.322977

                          6       1    8px               0.469590       0.554100
                          6       1    8py               0.469590       0.554100
                          6       1    8pz               0.469590       0.554100

                          7       1   13dx2              0.772696       1.048154
                          7       1   13dxy              0.772696       1.815456
                          7       1   13dxz              0.772696       1.815456
                          7       1   13dy2              0.772696       1.048154
                          7       1   13dyz              0.772696       1.815456
                          7       1   13dz2              0.772696       1.048154

                          8       1    3s                1.064894       0.747119

                          9       1    9px               1.361014       2.095406
                          9       1    9py               1.361014       2.095406
                          9       1    9pz               1.361014       2.095406

                         10       1   15fx3              1.546815       3.928174
                         10       1   15fx2y             1.546815       8.783664
                         10       1   15fx2z             1.546815       8.783664
                         10       1   15fxy2             1.546815       8.783664
                         10       1   15fxyz             1.546815      15.213752
                         10       1   15fxz2             1.546815       8.783664
                         10       1   15fy3              1.546815       3.928174
                         10       1   15fy2z             1.546815       8.783664
                         10       1   15fyz2             1.546815       8.783664
                         10       1   15fz3              1.546815       3.928174

                         11       1    4s                3.883983       1.971824

                         12       1   10px               4.002321       8.069192
                         12       1   10py               4.002321       8.069192
                         12       1   10pz               4.002321       8.069192

                         13       1   11px              12.201965      32.507030
                         13       1   11py              12.201965      32.507030
                         13       1   11pz              12.201965      32.507030

                         14       1    5s               13.736681       5.085357

                         15       1    6s               47.445203      12.884107

       Atomic covalent radius [Angstrom]:                                  0.820

       Atomic van der Waals radius [Angstrom]:                             1.920

     The atoms of this atomic kind are PAW atoms (GAPW):
       Hard Gaussian function radius:                                      1.512
       Rho0 radius:                                                        1.512
       Maximum GTO radius used for PAW projector construction:            24.566

     GAPW Soft Basis Set                                 aug-DZVP-MOLOPT-ae_soft

       Number of orbital shell sets:                                           2
       Number of orbital shells:                                              10
       Number of primitive Cartesian functions:                                8
       Number of Cartesian basis functions:                                   35
       Number of spherical basis functions:                                   30
       Norm type:                                                              2

       Normalised Cartesian orbitals:

                        Set   Shell   Orbital            Exponent    Coefficient

                          1       1    2s                0.082134       0.085473
                                                         0.140000       0.049675
                                                         0.279625      -0.030750
                                                         0.881274       0.022030
                                                         4.510873       0.000000

                          1       2    3px               0.082134      -0.004879
                                                         0.140000       0.000000
                                                         0.279625      -0.151722
                                                         0.881274      -0.583957
                                                         4.510873       0.000000
                          1       2    3py               0.082134      -0.004879
                                                         0.140000       0.000000
                                                         0.279625      -0.151722
                                                         0.881274      -0.583957
                                                         4.510873       0.000000
                          1       2    3pz               0.082134      -0.004879
                                                         0.140000       0.000000
                                                         0.279625      -0.151722
                                                         0.881274      -0.583957
                                                         4.510873       0.000000

                          1       3    4px               0.082134       0.052233
                                                         0.140000       0.000000
                                                         0.279625       0.094300
                                                         0.881274      -0.581323
                                                         4.510873       0.000000
                          1       3    4py               0.082134       0.052233
                                                         0.140000       0.000000
                                                         0.279625       0.094300
                                                         0.881274      -0.581323
                                                         4.510873       0.000000
                          1       3    4pz               0.082134       0.052233
                                                         0.140000       0.000000
                                                         0.279625       0.094300
                                                         0.881274      -0.581323
                                                         4.510873       0.000000

                          1       4    5px               0.082134       0.024659
                                                         0.140000       0.076570
                                                         0.279625      -0.053289
                                                         0.881274       0.410720
                                                         4.510873       0.000000
                          1       4    5py               0.082134       0.024659
                                                         0.140000       0.076570
                                                         0.279625      -0.053289
                                                         0.881274       0.410720
                                                         4.510873       0.000000
                          1       4    5pz               0.082134       0.024659
                                                         0.140000       0.076570
                                                         0.279625      -0.053289
                                                         0.881274       0.410720
                                                         4.510873       0.000000

                          1       5    4dx2              0.082134       0.000404
                                                         0.140000       0.000000
                                                         0.279625       0.111576
                                                         0.881274       0.641739
                                                         4.510873       0.000000
                          1       5    4dxy              0.082134       0.000700
                                                         0.140000       0.000000
                                                         0.279625       0.193255
                                                         0.881274       1.111524
                                                         4.510873       0.000000
                          1       5    4dxz              0.082134       0.000700
                                                         0.140000       0.000000
                                                         0.279625       0.193255
                                                         0.881274       1.111524
                                                         4.510873       0.000000
                          1       5    4dy2              0.082134       0.000404
                                                         0.140000       0.000000
                                                         0.279625       0.111576
                                                         0.881274       0.641739
                                                         4.510873       0.000000
                          1       5    4dyz              0.082134       0.000700
                                                         0.140000       0.000000
                                                         0.279625       0.193255
                                                         0.881274       1.111524
                                                         4.510873       0.000000
                          1       5    4dz2              0.082134       0.000404
                                                         0.140000       0.000000
                                                         0.279625       0.111576
                                                         0.881274       0.641739
                                                         4.510873       0.000000

                          1       6    5dx2              0.082134       0.036596
                                                         0.140000      -0.054919
                                                         0.279625      -0.008802
                                                         0.881274      -0.232953
                                                         4.510873       0.000000
                          1       6    5dxy              0.082134       0.063387
                                                         0.140000      -0.095122
                                                         0.279625      -0.015246
                                                         0.881274      -0.403486
                                                         4.510873       0.000000
                          1       6    5dxz              0.082134       0.063387
                                                         0.140000      -0.095122
                                                         0.279625      -0.015246
                                                         0.881274      -0.403486
                                                         4.510873       0.000000
                          1       6    5dy2              0.082134       0.036596
                                                         0.140000      -0.054919
                                                         0.279625      -0.008802
                                                         0.881274      -0.232953
                                                         4.510873       0.000000
                          1       6    5dyz              0.082134       0.063387
                                                         0.140000      -0.095122
                                                         0.279625      -0.015246
                                                         0.881274      -0.403486
                                                         4.510873       0.000000
                          1       6    5dz2              0.082134       0.036596
                                                         0.140000      -0.054919
                                                         0.279625      -0.008802
                                                         0.881274      -0.232953
                                                         4.510873       0.000000

                          1       7    5fx3              0.082134      -0.000468
                                                         0.140000       0.012301
                                                         0.279625       0.033988
                                                         0.881274       0.068820
                                                         4.510873       0.000000
                          1       7    5fx2y             0.082134      -0.001048
                                                         0.140000       0.027506
                                                         0.279625       0.075998
                                                         0.881274       0.153886
                                                         4.510873       0.000000
                          1       7    5fx2z             0.082134      -0.001048
                                                         0.140000       0.027506
                                                         0.279625       0.075998
                                                         0.881274       0.153886
                                                         4.510873       0.000000
                          1       7    5fxy2             0.082134      -0.001048
                                                         0.140000       0.027506
                                                         0.279625       0.075998
                                                         0.881274       0.153886
                                                         4.510873       0.000000
                          1       7    5fxyz             0.082134      -0.001814
                                                         0.140000       0.047643
                                                         0.279625       0.131633
                                                         0.881274       0.266539
                                                         4.510873       0.000000
                          1       7    5fxz2             0.082134      -0.001048
                                                         0.140000       0.027506
                                                         0.279625       0.075998
                                                         0.881274       0.153886
                                                         4.510873       0.000000
                          1       7    5fy3              0.082134      -0.000468
                                                         0.140000       0.012301
                                                         0.279625       0.033988
                                                         0.881274       0.068820
                                                         4.510873       0.000000
                          1       7    5fy2z             0.082134      -0.001048
                                                         0.140000       0.027506
                                                         0.279625       0.075998
                                                         0.881274       0.153886
                                                         4.510873       0.000000
                          1       7    5fyz2             0.082134      -0.001048
                                                         0.140000       0.027506
                                                         0.279625       0.075998
                                                         0.881274       0.153886
                                                         4.510873       0.000000
                          1       7    5fz3              0.082134      -0.000468
                                                         0.140000       0.012301
                                                         0.279625       0.033988
                                                         0.881274       0.068820
                                                         4.510873       0.000000

                          2       1    1s                2.208031      -0.468381
                                                         0.410209      -0.026981
                                                         0.151694      -0.023850

                          2       2    2s                2.208031      -0.246292
                                                         0.410209       0.238157
                                                         0.151694       0.084355

                          2       3    3s                2.208031      -0.073452
                                                         0.410209      -0.458063
                                                         0.151694       0.280188

     AE Potential information for                                            ALL

       Description:                                       All-electron potential
                                          Krack, Parrinello, PCCP 2, 2105 (2000)

       Gaussian exponent of the core charge distribution:               2.655410
       Electronic configuration (s p d ...):                           4   1   0

  2. Atomic kind: N                                     Number of atoms:       1

     Orbital Basis Set                                        aug-DZVP-MOLOPT-ae

       Number of orbital shell sets:                                           2
       Number of orbital shells:                                              10
       Number of primitive Cartesian functions:                               12
       Number of Cartesian basis functions:                                   35
       Number of spherical basis functions:                                   30
       Norm type:                                                              2

       Normalised Cartesian orbitals:

                        Set   Shell   Orbital            Exponent    Coefficient

                          1       1    2s                0.060000      -0.096639
                                                         0.166384       0.037538
                                                         0.634073      -0.055669
                                                         2.325354       0.000000
                                                        12.268174       0.000000

                          1       2    3px               0.060000       0.000000
                                                         0.166384      -0.031930
                                                         0.634073      -0.492962
                                                         2.325354      -1.380142
                                                        12.268174      -2.349358
                          1       2    3py               0.060000       0.000000
                                                         0.166384      -0.031930
                                                         0.634073      -0.492962
                                                         2.325354      -1.380142
                                                        12.268174      -2.349358
                          1       2    3pz               0.060000       0.000000
                                                         0.166384      -0.031930
                                                         0.634073      -0.492962
                                                         2.325354      -1.380142
                                                        12.268174      -2.349358

                          1       3    4px               0.060000       0.000000
                                                         0.166384       0.169694
                                                         0.634073      -0.220766
                                                         2.325354      -0.809234
                                                        12.268174      -0.998521
                          1       3    4py               0.060000       0.000000
                                                         0.166384       0.169694
                                                         0.634073      -0.220766
                                                         2.325354      -0.809234
                                                        12.268174      -0.998521
                          1       3    4pz               0.060000       0.000000
                                                         0.166384       0.169694
                                                         0.634073      -0.220766
                                                         2.325354      -0.809234
                                                        12.268174      -0.998521

                          1       4    5px               0.060000       0.028594
                                                         0.166384       0.063224
                                                         0.634073      -0.046183
                                                         2.325354       0.000000
                                                        12.268174       0.000000
                          1       4    5py               0.060000       0.028594
                                                         0.166384       0.063224
                                                         0.634073      -0.046183
                                                         2.325354       0.000000
                                                        12.268174       0.000000
                          1       4    5pz               0.060000       0.028594
                                                         0.166384       0.063224
                                                         0.634073      -0.046183
                                                         2.325354       0.000000
                                                        12.268174       0.000000

                          1       5    4dx2              0.060000       0.000000
                                                         0.166384       0.019402
                                                         0.634073       0.555487
                                                         2.325354       1.255926
                                                        12.268174      -0.426175
                          1       5    4dxy              0.060000       0.000000
                                                         0.166384       0.033606
                                                         0.634073       0.962132
                                                         2.325354       2.175327
                                                        12.268174      -0.738157
                          1       5    4dxz              0.060000       0.000000
                                                         0.166384       0.033606
                                                         0.634073       0.962132
                                                         2.325354       2.175327
                                                        12.268174      -0.738157
                          1       5    4dy2              0.060000       0.000000
                                                         0.166384       0.019402
                                                         0.634073       0.555487
                                                         2.325354       1.255926
                                                        12.268174      -0.426175
                          1       5    4dyz              0.060000       0.000000
                                                         0.166384       0.033606
                                                         0.634073       0.962132
                                                         2.325354       2.175327
                                                        12.268174      -0.738157
                          1       5    4dz2              0.060000       0.000000
                                                         0.166384       0.019402
                                                         0.634073       0.555487
                                                         2.325354       1.255926
                                                        12.268174      -0.426175

                          1       6    5dx2              0.060000      -0.008089
                                                         0.166384      -0.027907
                                                         0.634073      -0.057221
                                                         2.325354       0.000000
                                                        12.268174       0.000000
                          1       6    5dxy              0.060000      -0.014011
                                                         0.166384      -0.048336
                                                         0.634073      -0.099109
                                                         2.325354       0.000000
                                                        12.268174       0.000000
                          1       6    5dxz              0.060000      -0.014011
                                                         0.166384      -0.048336
                                                         0.634073      -0.099109
                                                         2.325354       0.000000
                                                        12.268174       0.000000
                          1       6    5dy2              0.060000      -0.008089
                                                         0.166384      -0.027907
                                                         0.634073      -0.057221
                                                         2.325354       0.000000
                                                        12.268174       0.000000
                          1       6    5dyz              0.060000      -0.014011
                                                         0.166384      -0.048336
                                                         0.634073      -0.099109
                                                         2.325354       0.000000
                                                        12.268174       0.000000
                          1       6    5dz2              0.060000      -0.008089
                                                         0.166384      -0.027907
                                                         0.634073      -0.057221
                                                         2.325354       0.000000
                                                        12.268174       0.000000

                          1       7    5fx3              0.060000       0.000067
                                                         0.166384       0.012645
                                                         0.634073       0.328269
                                                         2.325354       1.687172
                                                        12.268174       0.000000
                          1       7    5fx2y             0.060000       0.000150
                                                         0.166384       0.028275
                                                         0.634073       0.734031
                                                         2.325354       3.772631
                                                        12.268174       0.000000
                          1       7    5fx2z             0.060000       0.000150
                                                         0.166384       0.028275
                                                         0.634073       0.734031
                                                         2.325354       3.772631
                                                        12.268174       0.000000
                          1       7    5fxy2             0.060000       0.000150
                                                         0.166384       0.028275
                                                         0.634073       0.734031
                                                         2.325354       3.772631
                                                        12.268174       0.000000
                          1       7    5fxyz             0.060000       0.000260
                                                         0.166384       0.048973
                                                         0.634073       1.271379
                                                         2.325354       6.534389
                                                        12.268174       0.000000
                          1       7    5fxz2             0.060000       0.000150
                                                         0.166384       0.028275
                                                         0.634073       0.734031
                                                         2.325354       3.772631
                                                        12.268174       0.000000
                          1       7    5fy3              0.060000       0.000067
                                                         0.166384       0.012645
                                                         0.634073       0.328269
                                                         2.325354       1.687172
                                                        12.268174       0.000000
                          1       7    5fy2z             0.060000       0.000150
                                                         0.166384       0.028275
                                                         0.634073       0.734031
                                                         2.325354       3.772631
                                                        12.268174       0.000000
                          1       7    5fyz2             0.060000       0.000150
                                                         0.166384       0.028275
                                                         0.634073       0.734031
                                                         2.325354       3.772631
                                                        12.268174       0.000000
                          1       7    5fz3              0.060000       0.000067
                                                         0.166384       0.012645
                                                         0.634073       0.328269
                                                         2.325354       1.687172
                                                        12.268174       0.000000

                          2       1    1s                0.191012      -0.002582
                                                         0.666629       0.012902
                                                         4.403487      -0.858326
                                                        14.651380      -2.749170
                                                        57.692026      -2.958222
                                                       257.997554      -1.897300
                                                      1713.054433      -1.166486

                          2       2    2s                0.191012       0.079194
                                                         0.666629       0.351708
                                                         4.403487       0.009155
                                                        14.651380       0.000424
                                                        57.692026       0.772862
                                                       257.997554      -0.458166
                                                      1713.054433       0.520658

                          2       3    3s                0.191012       0.300064
                                                         0.666629      -0.436823
                                                         4.403487      -0.072962
                                                        14.651380      -0.095292
                                                        57.692026      -1.262420
                                                       257.997554       0.741400
                                                      1713.054433      -0.270364

     RI Auxiliary Basis Set             RI_aug-DZVP-MOLOPT-ae_N_RI_051_s_p_d_f_g

       Number of orbital shell sets:                                          15
       Number of orbital shells:                                              15
       Number of primitive Cartesian functions:                               15
       Number of Cartesian basis functions:                                   65
       Number of spherical basis functions:                                   51
       Norm type:                                                              2

       Normalised Cartesian orbitals:

                        Set   Shell   Orbital            Exponent    Coefficient

                          1       1    1s                0.278316       0.273095

                          2       1    7px               0.430147       0.496548
                          2       1    7py               0.430147       0.496548
                          2       1    7pz               0.430147       0.496548

                          3       1    2s                0.538036       0.447732

                          4       1   11dx2              0.659851       0.795134
                          4       1   11dxy              0.659851       1.377212
                          4       1   11dxz              0.659851       1.377212
                          4       1   11dy2              0.659851       0.795134
                          4       1   11dyz              0.659851       1.377212
                          4       1   11dz2              0.659851       0.795134

                          5       1   13fx3              0.735795       0.738173
                          5       1   13fx2y             0.735795       1.650604
                          5       1   13fx2z             0.735795       1.650604
                          5       1   13fxy2             0.735795       1.650604
                          5       1   13fxyz             0.735795       2.858931
                          5       1   13fxz2             0.735795       1.650604
                          5       1   13fy3              0.735795       0.738173
                          5       1   13fy2z             0.735795       1.650604
                          5       1   13fyz2             0.735795       1.650604
                          5       1   13fz3              0.735795       0.738173

                          6       1   15gx4              1.017804       1.168187
                          6       1   15gx3y             1.017804       3.090733
                          6       1   15gx3z             1.017804       3.090733
                          6       1   15gx2y2            1.017804       3.990119
                          6       1   15gx2yz            1.017804       6.911088
                          6       1   15gx2z2            1.017804       3.990119
                          6       1   15gxy3             1.017804       3.090733
                          6       1   15gxy2z            1.017804       6.911088
                          6       1   15gxyz2            1.017804       6.911088
                          6       1   15gxz3             1.017804       3.090733
                          6       1   15gy4              1.017804       1.168187
                          6       1   15gy3z             1.017804       3.090733
                          6       1   15gy2z2            1.017804       3.990119
                          6       1   15gyz3             1.017804       3.090733
                          6       1   15gz4              1.017804       1.168187

                          7       1    8px               1.030606       1.480150
                          7       1    8py               1.030606       1.480150
                          7       1    8pz               1.030606       1.480150

                          8       1    3s                1.906963       1.156556

                          9       1   12dx2              2.008888       5.579329
                          9       1   12dxy              2.008888       9.663682
                          9       1   12dxz              2.008888       9.663682
                          9       1   12dy2              2.008888       5.579329
                          9       1   12dyz              2.008888       9.663682
                          9       1   12dz2              2.008888       5.579329

                         10       1   14fx3              2.299606       9.586824
                         10       1   14fx2y             2.299606      21.436791
                         10       1   14fx2z             2.299606      21.436791
                         10       1   14fxy2             2.299606      21.436791
                         10       1   14fxyz             2.299606      37.129611
                         10       1   14fxz2             2.299606      21.436791
                         10       1   14fy3              2.299606       9.586824
                         10       1   14fy2z             2.299606      21.436791
                         10       1   14fyz2             2.299606      21.436791
                         10       1   14fz3              2.299606       9.586824

                         11       1    9px               3.688090       7.285208
                         11       1    9py               3.688090       7.285208
                         11       1    9pz               3.688090       7.285208

                         12       1    4s                7.741488       3.307718

                         13       1   10px              20.056345      60.499925
                         13       1   10py              20.056345      60.499925
                         13       1   10pz              20.056345      60.499925

                         14       1    5s               29.847440       9.101027

                         15       1    6s              109.791043      24.173263

       Atomic covalent radius [Angstrom]:                                  0.750

       Atomic van der Waals radius [Angstrom]:                             1.550

     The atoms of this atomic kind are PAW atoms (GAPW):
       Hard Gaussian function radius:                                      1.512
       Rho0 radius:                                                        1.512
       Maximum GTO radius used for PAW projector construction:            24.566

     GAPW Soft Basis Set                                 aug-DZVP-MOLOPT-ae_soft

       Number of orbital shell sets:                                           2
       Number of orbital shells:                                              10
       Number of primitive Cartesian functions:                                6
       Number of Cartesian basis functions:                                   35
       Number of spherical basis functions:                                   30
       Norm type:                                                              2

       Normalised Cartesian orbitals:

                        Set   Shell   Orbital            Exponent    Coefficient

                          1       1    2s                0.060000      -0.096639
                                                         0.166384       0.037538
                                                         0.634073      -0.055669
                                                         2.325354       0.000000

                          1       2    3px               0.060000       0.000000
                                                         0.166384      -0.031930
                                                         0.634073      -0.492962
                                                         2.325354      -1.380142
                          1       2    3py               0.060000       0.000000
                                                         0.166384      -0.031930
                                                         0.634073      -0.492962
                                                         2.325354      -1.380142
                          1       2    3pz               0.060000       0.000000
                                                         0.166384      -0.031930
                                                         0.634073      -0.492962
                                                         2.325354      -1.380142

                          1       3    4px               0.060000       0.000000
                                                         0.166384       0.169694
                                                         0.634073      -0.220766
                                                         2.325354      -0.809234
                          1       3    4py               0.060000       0.000000
                                                         0.166384       0.169694
                                                         0.634073      -0.220766
                                                         2.325354      -0.809234
                          1       3    4pz               0.060000       0.000000
                                                         0.166384       0.169694
                                                         0.634073      -0.220766
                                                         2.325354      -0.809234

                          1       4    5px               0.060000       0.028594
                                                         0.166384       0.063224
                                                         0.634073      -0.046183
                                                         2.325354       0.000000
                          1       4    5py               0.060000       0.028594
                                                         0.166384       0.063224
                                                         0.634073      -0.046183
                                                         2.325354       0.000000
                          1       4    5pz               0.060000       0.028594
                                                         0.166384       0.063224
                                                         0.634073      -0.046183
                                                         2.325354       0.000000

                          1       5    4dx2              0.060000       0.000000
                                                         0.166384       0.019402
                                                         0.634073       0.555487
                                                         2.325354       1.255926
                          1       5    4dxy              0.060000       0.000000
                                                         0.166384       0.033606
                                                         0.634073       0.962132
                                                         2.325354       2.175327
                          1       5    4dxz              0.060000       0.000000
                                                         0.166384       0.033606
                                                         0.634073       0.962132
                                                         2.325354       2.175327
                          1       5    4dy2              0.060000       0.000000
                                                         0.166384       0.019402
                                                         0.634073       0.555487
                                                         2.325354       1.255926
                          1       5    4dyz              0.060000       0.000000
                                                         0.166384       0.033606
                                                         0.634073       0.962132
                                                         2.325354       2.175327
                          1       5    4dz2              0.060000       0.000000
                                                         0.166384       0.019402
                                                         0.634073       0.555487
                                                         2.325354       1.255926

                          1       6    5dx2              0.060000      -0.008089
                                                         0.166384      -0.027907
                                                         0.634073      -0.057221
                                                         2.325354       0.000000
                          1       6    5dxy              0.060000      -0.014011
                                                         0.166384      -0.048336
                                                         0.634073      -0.099109
                                                         2.325354       0.000000
                          1       6    5dxz              0.060000      -0.014011
                                                         0.166384      -0.048336
                                                         0.634073      -0.099109
                                                         2.325354       0.000000
                          1       6    5dy2              0.060000      -0.008089
                                                         0.166384      -0.027907
                                                         0.634073      -0.057221
                                                         2.325354       0.000000
[...]
   418 Broy./Diag. 0.10E+00    5.5     0.06391834       -79.6305671560  2.65E-02
   419 Broy./Diag. 0.10E+00    5.5     0.05407092       -79.6343131331 -3.75E-03
   420 Broy./Diag. 0.10E+00    5.4     0.03809867       -79.5429854671  9.13E-02
   421 Broy./Diag. 0.10E+00    5.5     0.06904807       -79.6039185585 -6.09E-02
   422 Broy./Diag. 0.10E+00    5.4     0.32076631       -79.6294723844 -2.56E-02
   423 Broy./Diag. 0.10E+00    5.4     0.08374717       -78.9711665649  6.58E-01
   424 Broy./Diag. 0.10E+00    5.5     0.07739050       -79.2966866267 -3.26E-01
   425 Broy./Diag. 0.10E+00    5.8     0.04363872       -79.5399584771 -2.43E-01
   426 Broy./Diag. 0.10E+00    5.7     0.05205726       -79.4600355382  7.99E-02
   427 Broy./Diag. 0.10E+00    5.7     0.07242874       -79.3531665882  1.07E-01
   428 Broy./Diag. 0.10E+00    5.7     0.04340368       -79.4526501961 -9.95E-02
   429 Broy./Diag. 0.10E+00    5.6     0.05621360       -79.4959270446 -4.33E-02
   430 Broy./Diag. 0.10E+00    5.5     0.07084943       -79.3689082571  1.27E-01
   431 Broy./Diag. 0.10E+00    5.5     0.05025180       -79.2730984071  9.58E-02
   432 Broy./Diag. 0.10E+00    5.6     0.03610603       -79.2353564651  3.77E-02
   433 Broy./Diag. 0.10E+00    5.5     0.03786236       -79.1883809305  4.70E-02
   434 Broy./Diag. 0.10E+00    5.5     0.04713901       -79.1896899561 -1.31E-03
   435 Broy./Diag. 0.10E+00    5.5     0.05194941       -79.1833945021  6.30E-03
   436 Broy./Diag. 0.10E+00    5.4     0.05756704       -79.1804339464  2.96E-03
   437 Broy./Diag. 0.10E+00    5.5     0.06039541       -79.1901181646 -9.68E-03
   438 Broy./Diag. 0.10E+00    5.4     0.06144561       -79.1893005251  8.18E-04
   439 Broy./Diag. 0.10E+00    5.5     0.05126464       -79.1960472148 -6.75E-03
   440 Broy./Diag. 0.10E+00    5.4     0.03904211       -79.2216456933 -2.56E-02
   441 Broy./Diag. 0.10E+00    5.6     0.03143095       -79.2473832526 -2.57E-02
   442 Broy./Diag. 0.10E+00    5.8     0.03234770       -79.2815190359 -3.41E-02
   443 Broy./Diag. 0.10E+00    5.7     0.02566706       -79.3149211744 -3.34E-02
   444 Broy./Diag. 0.10E+00    5.7     0.04292484       -79.3121250231  2.80E-03
   445 Broy./Diag. 0.10E+00    5.6     0.10388750       -79.3347904640 -2.27E-02
   446 Broy./Diag. 0.10E+00    5.5     0.11004011       -79.4832434246 -1.48E-01
   447 Broy./Diag. 0.10E+00    5.5     0.07985464       -79.5738075755 -9.06E-02
   448 Broy./Diag. 0.10E+00    5.5     0.05167457       -79.6002049968 -2.64E-02
   449 Broy./Diag. 0.10E+00    5.5     0.04705031       -79.6106113798 -1.04E-02
   450 Broy./Diag. 0.10E+00    5.5     0.03692932       -79.6245217939 -1.39E-02
   451 Broy./Diag. 0.10E+00    5.5     0.04668998       -79.6569203059 -3.24E-02
   452 Broy./Diag. 0.10E+00    5.4     0.07270829       -79.7210951283 -6.42E-02
   453 Broy./Diag. 0.10E+00    5.5     0.03562978       -79.6461321398  7.50E-02
   454 Broy./Diag. 0.10E+00    5.5     0.02412043       -79.6147569971  3.14E-02
   455 Broy./Diag. 0.10E+00    5.5     0.08178284       -79.5204850564  9.43E-02
   456 Broy./Diag. 0.10E+00    5.7     0.06929970       -79.4566527654  6.38E-02
   457 Broy./Diag. 0.10E+00    5.9     0.61172204       -79.2743062523  1.82E-01
   458 Broy./Diag. 0.10E+00    5.6     0.24774921       -78.3749671247  8.99E-01
   459 Broy./Diag. 0.10E+00    5.6     0.22393803       -78.9988215239 -6.24E-01
   460 Broy./Diag. 0.10E+00    5.6     0.15023701       -79.4873761393 -4.89E-01
   461 Broy./Diag. 0.10E+00    5.5     0.12300293       -79.6610178802 -1.74E-01
   462 Broy./Diag. 0.10E+00    5.5     0.07357961       -79.8609348866 -2.00E-01
   463 Broy./Diag. 0.10E+00    5.5     0.06324802       -79.9261000949 -6.52E-02
   464 Broy./Diag. 0.10E+00    5.5     0.05860109       -79.9765217673 -5.04E-02
   465 Broy./Diag. 0.10E+00    5.5     0.03621275       -79.9922302798 -1.57E-02
   466 Broy./Diag. 0.10E+00    5.5     0.08548163       -79.8485838748  1.44E-01
   467 Broy./Diag. 0.10E+00    5.5     0.05883069       -79.8051663920  4.34E-02
   468 Broy./Diag. 0.10E+00    5.5     0.08197137       -79.8189974069 -1.38E-02
   469 Broy./Diag. 0.10E+00    5.5     0.09208540       -79.7710844984  4.79E-02
   470 Broy./Diag. 0.10E+00    5.7     0.04135729       -79.6675645023  1.04E-01
   471 Broy./Diag. 0.10E+00    5.8     0.06693500       -79.5811780358  8.64E-02
   472 Broy./Diag. 0.10E+00    5.6     0.08806376       -79.4511834495  1.30E-01
   473 Broy./Diag. 0.10E+00    5.7     0.31860129       -79.3227993517  1.28E-01
   474 Broy./Diag. 0.10E+00    5.6     0.14037441       -78.8150292108  5.08E-01
   475 Broy./Diag. 0.10E+00    5.5     0.13091706       -78.9652624333 -1.50E-01
   476 Broy./Diag. 0.10E+00    5.6     0.10770070       -79.2792011200 -3.14E-01
   477 Broy./Diag. 0.10E+00    5.6     0.09413263       -79.3760792608 -9.69E-02
   478 Broy./Diag. 0.10E+00    5.4     0.08830214       -79.3973759526 -2.13E-02
   479 Broy./Diag. 0.10E+00    5.5     0.08675203       -79.2356883722  1.62E-01
   480 Broy./Diag. 0.10E+00    5.5     0.05698254       -79.0228308786  2.13E-01
   481 Broy./Diag. 0.10E+00    5.5     0.07542845       -78.9038835546  1.19E-01
   482 Broy./Diag. 0.10E+00    5.5     0.08818672       -79.1307680065 -2.27E-01
   483 Broy./Diag. 0.10E+00    5.5     0.02247229       -79.3084098055 -1.78E-01
   484 Broy./Diag. 0.10E+00    5.5     0.07624943       -79.2798256863  2.86E-02
   485 Broy./Diag. 0.10E+00    5.4     0.06532369       -79.0767407036  2.03E-01
   486 Broy./Diag. 0.10E+00    5.6     0.04634706       -78.9637094933  1.13E-01
   487 Broy./Diag. 0.10E+00    5.8     0.03102225       -78.9566729995  7.04E-03
   488 Broy./Diag. 0.10E+00    5.7     0.01967145       -78.9091942764  4.75E-02
   489 Broy./Diag. 0.10E+00    5.7     0.02485809       -78.9284005322 -1.92E-02
   490 Broy./Diag. 0.10E+00    5.6     0.03221117       -78.9750983959 -4.67E-02
   491 Broy./Diag. 0.10E+00    5.8     0.03102764       -79.0247611510 -4.97E-02
   492 Broy./Diag. 0.10E+00    5.5     0.02987388       -79.0369015076 -1.21E-02
   493 Broy./Diag. 0.10E+00    5.6     0.02573737       -79.0573882094 -2.05E-02
   494 Broy./Diag. 0.10E+00    5.5     0.05460101       -79.0221526998  3.52E-02
   495 Broy./Diag. 0.10E+00    5.4     0.08285634       -79.1562848832 -1.34E-01
   496 Broy./Diag. 0.10E+00    5.5     0.08338840       -79.3391694065 -1.83E-01
   497 Broy./Diag. 0.10E+00    5.5     0.10646915       -79.4423944276 -1.03E-01
   498 Broy./Diag. 0.10E+00    5.5     0.09025304       -79.5811120663 -1.39E-01
   499 Broy./Diag. 0.10E+00    5.5     0.06188336       -79.6319125347 -5.08E-02
   500 Broy./Diag. 0.10E+00    5.4     0.06374650       -79.6471426441 -1.52E-02

  Leaving inner SCF loop after reaching   500 steps.


  Electronic density on regular grids:         -8.3572445725        3.6427554275
  Core density on regular grids:               12.0000000000        0.0000000000
  Hard and soft densities (Lebedev):          -40.1511011474      -36.5075076446
  Total Rho_soft + Rho1_hard - Rho1_soft      -12.0008380754
  Total charge density (r-space):              -0.0008380754
  Total Rho_soft + Rho0_soft (g-space):        -0.0008380930

  Overlap energy of the core charge distribution:               0.00001993455823
  Self energy of the core charge distribution:                -64.05191455199152
  Core Hamiltonian energy:                                    -14.88401809736247
  Hartree energy:                                              16.87733896387348
  Exchange-correlation energy:                                 -2.72861485067598
  Hartree-Fock Exchange energy:                                -2.54338640498578

  GAPW| Exc from hard and soft atomic rho1:                    -5.33959445264956
  GAPW| local Eh = 1 center integrals:                         -6.97697318488750

  Total energy:                                               -79.64714264412110

 *******************************************************************************
 *   ___                                                                       *
 *  /   \                                                                      *
 * [ABORT]                                                                     *
 *  \___/     SCF run NOT converged. To continue the calculation regardless,   *
 *    |             please set the keyword IGNORE_CONVERGENCE_FAILURE.         *
 *  O/|                                                                        *
 * /| |                                                                        *
 * / \                                                            qs_scf.F:611 *
 *******************************************************************************


 ===== Routine Calling Stack ===== 

            3 scf_env_do_scf
            2 qs_energies
            1 CP2K

 *******************************************************************************
 *   ___                                                                       *
 *  /   \                                                                      *
 * [ABORT]                                                                     *
 *  \___/     SCF run NOT converged. To continue the calculation regardless,   *
 *    |             please set the keyword IGNORE_CONVERGENCE_FAILURE.         *
 *  O/|                                                                        *
 * /| |                                                                        *
 * / \                                                            qs_scf.F:611 *
 *******************************************************************************


 ===== Routine Calling Stack ===== 

            3 scf_env_do_scf
            2 qs_energies
            1 CP2K

 *******************************************************************************
 *   ___                                                                       *
 *  /   \                                                                      *
 * [ABORT]                                                                     *
 *  \___/     SCF run NOT converged. To continue the calculation regardless,   *
 *    |             please set the keyword IGNORE_CONVERGENCE_FAILURE.         *
 *  O/|                                                                        *
 * /| |                                                                        *
 * / \                                                            qs_scf.F:611 *
 *******************************************************************************


 ===== Routine Calling Stack ===== 

            3 scf_env_do_scf
            2 qs_energies
            1 CP2K

 *******************************************************************************
 *   ___                                                                       *
 *  /   \                                                                      *
 * [ABORT]                                                                     *
 *  \___/     SCF run NOT converged. To continue the calculation regardless,   *
 *    |             please set the keyword IGNORE_CONVERGENCE_FAILURE.         *
 *  O/|                                                                        *
 * /| |                                                                        *
 * / \                                                            qs_scf.F:611 *
 *******************************************************************************


 ===== Routine Calling Stack ===== 

            3 scf_env_do_scf
            2 qs_energies
            1 CP2K

 *******************************************************************************
 *   ___                                                                       *
 *  /   \                                                                      *
 * [ABORT]                                                                     *
 *  \___/     SCF run NOT converged. To continue the calculation regardless,   *
 *    |             please set the keyword IGNORE_CONVERGENCE_FAILURE.         *
 *  O/|                                                                        *
 * /| |                                                                        *
 * / \                                                            qs_scf.F:611 *
 *******************************************************************************


 ===== Routine Calling Stack ===== 

            3 scf_env_do_scf
            2 qs_energies
            1 CP2K

 *******************************************************************************
 *   ___                                                                       *
 *  /   \                                                                      *
 * [ABORT]                                                                     *
 *  \___/     SCF run NOT converged. To continue the calculation regardless,   *
 *    |             please set the keyword IGNORE_CONVERGENCE_FAILURE.         *
 *  O/|                                                                        *
 * /| |                                                                        *
 * / \                                                            qs_scf.F:611 *
 *******************************************************************************


 ===== Routine Calling Stack ===== 

            3 scf_env_do_scf
            2 qs_energies
            1 CP2K

 *******************************************************************************
 *   ___                                                                       *
 *  /   \                                                                      *
 * [ABORT]                                                                     *
 *  \___/     SCF run NOT converged. To continue the calculation regardless,   *
 *    |             please set the keyword IGNORE_CONVERGENCE_FAILURE.         *
 *  O/|                                                                        *
 * /| |                                                                        *
 * / \                                                            qs_scf.F:611 *
 *******************************************************************************


 ===== Routine Calling Stack ===== 

            3 scf_env_do_scf
            2 qs_energies
            1 CP2K

 *******************************************************************************
 *   ___                                                                       *
 *  /   \                                                                      *
 * [ABORT]                                                                     *
 *  \___/     SCF run NOT converged. To continue the calculation regardless,   *
 *    |             please set the keyword IGNORE_CONVERGENCE_FAILURE.         *
 *  O/|                                                                        *
 * /| |                                                                        *
 * / \                                                            qs_scf.F:611 *
 *******************************************************************************


 ===== Routine Calling Stack ===== 

            3 scf_env_do_scf
            2 qs_energies
            1 CP2K

 *******************************************************************************
 *   ___                                                                       *
 *  /   \                                                                      *
 * [ABORT]                                                                     *
 *  \___/     SCF run NOT converged. To continue the calculation regardless,   *
 *    |             please set the keyword IGNORE_CONVERGENCE_FAILURE.         *
 *  O/|                                                                        *
 * /| |                                                                        *
 * / \                                                            qs_scf.F:611 *
 *******************************************************************************


 ===== Routine Calling Stack ===== 

            3 scf_env_do_scf
            2 qs_energies
            1 CP2K

 *******************************************************************************
 *   ___                                                                       *
 *  /   \                                                                      *
 * [ABORT]                                                                     *
 *  \___/     SCF run NOT converged. To continue the calculation regardless,   *
 *    |             please set the keyword IGNORE_CONVERGENCE_FAILURE.         *
 *  O/|                                                                        *
 * /| |                                                                        *
 * / \                                                            qs_scf.F:611 *
 *******************************************************************************


 ===== Routine Calling Stack ===== 

            3 scf_env_do_scf
            2 qs_energies
            1 CP2K

 *******************************************************************************
 *   ___                                                                       *
 *  /   \                                                                      *
 * [ABORT]                                                                     *
 *  \___/     SCF run NOT converged. To continue the calculation regardless,   *
 *    |             please set the keyword IGNORE_CONVERGENCE_FAILURE.         *
 *  O/|                                                                        *
 * /| |                                                                        *
 * / \                                                            qs_scf.F:611 *
 *******************************************************************************


 ===== Routine Calling Stack ===== 

            3 scf_env_do_scf
            2 qs_energies
            1 CP2K

 *******************************************************************************
 *   ___                                                                       *
 *  /   \                                                                      *
 * [ABORT]                                                                     *
 *  \___/     SCF run NOT converged. To continue the calculation regardless,   *
 *    |             please set the keyword IGNORE_CONVERGENCE_FAILURE.         *
 *  O/|                                                                        *
 * /| |                                                                        *
 * / \                                                            qs_scf.F:611 *
 *******************************************************************************


 ===== Routine Calling Stack ===== 

            3 scf_env_do_scf
            2 qs_energies
            1 CP2K

 *******************************************************************************
 *   ___                                                                       *
 *  /   \                                                                      *
 * [ABORT]                                                                     *
 *  \___/     SCF run NOT converged. To continue the calculation regardless,   *
 *    |             please set the keyword IGNORE_CONVERGENCE_FAILURE.         *
 *  O/|                                                                        *
 * /| |                                                                        *
 * / \                                                            qs_scf.F:611 *
 *******************************************************************************


 ===== Routine Calling Stack ===== 

            3 scf_env_do_scf
            2 qs_energies
            1 CP2K
