 DBCSR| CPU Multiplication driver                                           BLAS (U)
 DBCSR| Multrec recursion limit                                              512 (U)
 DBCSR| Multiplication stack size                                           1000 (D)
 DBCSR| Maximum elements for images                                    UNLIMITED (U)
 DBCSR| Multiplicative factor virtual images                                   1 (U)
 DBCSR| Use multiplication densification                                       T (D)
 DBCSR| Multiplication size stacks                                             3 (U)
 DBCSR| Use memory pool for CPU allocation                                     F (U)
 DBCSR| Number of 3D layers                                               SINGLE (U)
 DBCSR| Use MPI memory allocation                                              F (U)
 DBCSR| Use RMA algorithm                                                      F (U)
 DBCSR| Use Communication thread                                               T (U)
 DBCSR| Communication thread load                                             75 (D)
 DBCSR| MPI: My process id                                                     0
 DBCSR| MPI: Number of processes                                              24
 DBCSR| OMP: Current number of threads                                         4
 DBCSR| OMP: Max number of threads                                             4
 DBCSR| Split modifier for TAS multiplication algorithm                  1.0E+00 (U)


  **** **** ******  **  PROGRAM STARTED AT               2025-03-03 07:13:30.780
 ***** ** ***  *** **   PROGRAM STARTED ON                          i02r02c03s02
 **    ****   ******    PROGRAM STARTED BY                               di38fab
 ***** **    ** ** **   PROGRAM PROCESS ID                                823997
  **** **  *******  **  PROGRAM STARTED IN /hppfs/scratch/04/di38fab/05_MOL/W4-1
                                           1+ALK/bn3pi/DZVP

 CP2K| version string:                 CP2K version 2025.1 (Development Version)
 CP2K| source code revision number:                                  git:47877ba
 CP2K| cp2kflags: omp libint fftw3 libxc parallel scalapack max_contr=4         
 CP2K| is freely available from                            https://www.cp2k.org/
 CP2K| Program compiled at                          Thu Feb 20 16:00:34 CET 2025
 CP2K| Program compiled on                                               login04
 CP2K| Program compiled for                                        Supermuc-foss
 CP2K| Data directory path          /hppfs/work/pn36zo/di38fab/newcp2k/cp2k/data
 CP2K| Input file name                                                    GW.inp

 GLOBAL| Force Environment number                                              1
 GLOBAL| Basis set file name            /hppfs/scratch/04/di38fab/04_TMD/BASIS_A
 GLOBAL| Potential file name            /hppfs/work/pn36zo/di38fab/cp2k/data/ALL
 GLOBAL| MM Potential file name                                     MM_POTENTIAL
 GLOBAL| Coordinate file name                                      __STD_INPUT__
 GLOBAL| Method name                                                        CP2K
 GLOBAL| Project name                                                       MoS2
 GLOBAL| Run type                                                         ENERGY
 GLOBAL| FFT library                                                       FFTW3
 GLOBAL| Diagonalization library                                       ScaLAPACK
 GLOBAL| DGEMM library                                                      BLAS
 GLOBAL| Orthonormality check for eigenvectors                          DISABLED
 GLOBAL| Matrix multiplication library                                 ScaLAPACK
 GLOBAL| All-to-all communication in single precision                          F
 GLOBAL| FFTs using library dependent lengths                                  F
 GLOBAL| Grid backend                                                       AUTO
 GLOBAL| Global print level                                               MEDIUM
 GLOBAL| MPI I/O enabled                                                       T
 GLOBAL| Total number of message passing processes                            24
 GLOBAL| Number of threads for this process                                    4
 GLOBAL| This output is from process                                           0
 GLOBAL| OpenMP stack size per thread (OMP_STACKSIZE)                    default
 GLOBAL| CPU model name             Intel(R) Xeon(R) Platinum 8174 CPU @ 3.10GHz

 MEMORY| system memory details [Kb]
 MEMORY|                        rank 0           min           max       average
 MEMORY| MemTotal             98436664      98436664      98436664      98436664
 MEMORY| MemFree              84175196      84175196      84175872      84175534
 MEMORY| Buffers                     0             0             0             0
 MEMORY| Cached                2425648       2418528       2425648       2422088
 MEMORY| Slab                  1223480       1217660       1223480       1220570
 MEMORY| SReclaimable           262768        261700        262768        262234
 MEMORY| MemLikelyFree        86863612      86856100      86863612      86859856


 *** Fundamental physical constants (SI units) ***

 *** Literature: B. J. Mohr and B. N. Taylor,
 ***             CODATA recommended values of the fundamental physical
 ***             constants: 2006, Web Version 5.1
 ***             http://physics.nist.gov/constants

 Speed of light in vacuum [m/s]                             2.99792458000000E+08
 Magnetic constant or permeability of vacuum [N/A**2]       1.25663706143592E-06
 Electric constant or permittivity of vacuum [F/m]          8.85418781762039E-12
 Planck constant (h) [J*s]                                  6.62606896000000E-34
 Planck constant (h-bar) [J*s]                              1.05457162825177E-34
 Elementary charge [C]                                      1.60217648700000E-19
 Electron mass [kg]                                         9.10938215000000E-31
 Electron g factor [ ]                                     -2.00231930436220E+00
 Proton mass [kg]                                           1.67262163700000E-27
 Fine-structure constant                                    7.29735253760000E-03
 Rydberg constant [1/m]                                     1.09737315685270E+07
 Avogadro constant [1/mol]                                  6.02214179000000E+23
 Boltzmann constant [J/K]                                   1.38065040000000E-23
 Atomic mass unit [kg]                                      1.66053878200000E-27
 Bohr radius [m]                                            5.29177208590000E-11

 *** Conversion factors ***

 [u] -> [a.u.]                                              1.82288848426455E+03
 [Angstrom] -> [Bohr] = [a.u.]                              1.88972613288564E+00
 [a.u.] = [Bohr] -> [Angstrom]                              5.29177208590000E-01
 [a.u.] -> [s]                                              2.41888432650478E-17
 [a.u.] -> [fs]                                             2.41888432650478E-02
 [a.u.] -> [J]                                              4.35974393937059E-18
 [a.u.] -> [N]                                              8.23872205491840E-08
 [a.u.] -> [K]                                              3.15774647902944E+05
 [a.u.] -> [kJ/mol]                                         2.62549961709828E+03
 [a.u.] -> [kcal/mol]                                       6.27509468713739E+02
 [a.u.] -> [Pa]                                             2.94210107994716E+13
 [a.u.] -> [bar]                                            2.94210107994716E+08
 [a.u.] -> [atm]                                            2.90362800883016E+08
 [a.u.] -> [eV]                                             2.72113838565563E+01
 [a.u.] -> [Hz]                                             6.57968392072181E+15
 [a.u.] -> [1/cm] (wave numbers)                            2.19474631370540E+05
 [a.u./Bohr**2] -> [1/cm]                                   5.14048714338585E+03
 

 CELL_TOP| Volume [angstrom^3]:                                     27000.000000
 CELL_TOP| Vector a [angstrom    30.000     0.000     0.000   |a| =    30.000000
 CELL_TOP| Vector b [angstrom     0.000    30.000     0.000   |b| =    30.000000
 CELL_TOP| Vector c [angstrom     0.000     0.000    30.000   |c| =    30.000000
 CELL_TOP| Angle (b,c), alpha [degree]:                                90.000000
 CELL_TOP| Angle (a,c), beta  [degree]:                                90.000000
 CELL_TOP| Angle (a,b), gamma [degree]:                                90.000000
 CELL_TOP| Numerically orthorhombic:                                         YES
 CELL_TOP| Periodicity                                                      NONE

 GENERATE|  Preliminary Number of Bonds generated:                             0
 GENERATE|  Achieved consistency in connectivity generation.

 CELL| Volume [angstrom^3]:                                         27000.000000
 CELL| Vector a [angstrom]:      30.000     0.000     0.000   |a| =    30.000000
 CELL| Vector b [angstrom]:       0.000    30.000     0.000   |b| =    30.000000
 CELL| Vector c [angstrom]:       0.000     0.000    30.000   |c| =    30.000000
 CELL| Angle (b,c), alpha [degree]:                                    90.000000
 CELL| Angle (a,c), beta  [degree]:                                    90.000000
 CELL| Angle (a,b), gamma [degree]:                                    90.000000
 CELL| Numerically orthorhombic:                                             YES
 CELL| Periodicity                                                          NONE

 CELL_REF| Volume [angstrom^3]:                                     27000.000000
 CELL_REF| Vector a [angstrom    30.000     0.000     0.000   |a| =    30.000000
 CELL_REF| Vector b [angstrom     0.000    30.000     0.000   |b| =    30.000000
 CELL_REF| Vector c [angstrom     0.000     0.000    30.000   |c| =    30.000000
 CELL_REF| Angle (b,c), alpha [degree]:                                90.000000
 CELL_REF| Angle (a,c), beta  [degree]:                                90.000000
 CELL_REF| Angle (a,b), gamma [degree]:                                90.000000
 CELL_REF| Numerically orthorhombic:                                         YES
 CELL_REF| Periodicity                                                      NONE

 *******************************************************************************
 *******************************************************************************
 **                                                                           **
 **     #####                         ##              ##                      **
 **    ##   ##            ##          ##              ##                      **
 **   ##     ##                       ##            ######                    **
 **   ##     ##  ##   ##  ##   #####  ##  ##   ####   ##    #####    #####    **
 **   ##     ##  ##   ##  ##  ##      ## ##   ##      ##   ##   ##  ##   ##   **
 **   ##  ## ##  ##   ##  ##  ##      ####     ###    ##   ######   ######    **
 **    ##  ###   ##   ##  ##  ##      ## ##      ##   ##   ##       ##        **
 **     #######   #####   ##   #####  ##  ##  ####    ##    #####   ##        **
 **           ##                                                    ##        **
 **                                                                           **
 **                                                ... make the atoms dance   **
 **                                                                           **
 **            Copyright (C) by CP2K developers group (2000-2025)             **
 **                      J. Chem. Phys. 152, 194103 (2020)                    **
 **                                                                           **
 *******************************************************************************

 DFT| Spin restricted Kohn-Sham (RKS) calculation                            RKS
 DFT| Multiplicity                                                             1
 DFT| Number of spin states                                                    1
 DFT| Charge                                                                   0
 DFT| Self-interaction correction (SIC)                                       NO
 DFT| Cutoffs: density                                              1.000000E-10
 DFT|          gradient                                             1.000000E-10
 DFT|          tau                                                  1.000000E-10
 DFT|          cutoff_smoothing_range                               0.000000E+00
 DFT| XC density smoothing                                                  NONE
 DFT| XC derivatives                                                          PW

 FUNCTIONAL| PBE:
 FUNCTIONAL| J.P.Perdew, K.Burke, M.Ernzerhof, Phys. Rev. Letter, vol. 77, n 18,
 FUNCTIONAL|  pp. 3865-3868, (1996)sx=0.750sc=1.000{spin unpolarized}           


 QS| Method:                                                                GAPW
 QS| Density plane wave grid type                        NON-SPHERICAL FULLSPACE
 QS| Number of grid levels:                                                    4
 QS| Density cutoff [a.u.]:                                                250.0
 QS| Multi grid cutoff [a.u.]: 1) grid level                               250.0
 QS|                           2) grid level                                83.3
 QS|                           3) grid level                                27.8
 QS|                           4) grid level                                 9.3
 QS| Grid level progression factor:                                          3.0
 QS| Relative density cutoff [a.u.]:                                        50.0
 QS| Interaction thresholds: eps_pgf_orb:                                1.0E-12
 QS|                         eps_filter_matrix:                          0.0E+00
 QS|                         eps_core_charge:                            1.0E-14
 QS|                         eps_rho_gspace:                             1.0E-12
 QS|                         eps_rho_rspace:                             1.0E-12
 QS|                         eps_gvg_rspace:                             1.0E-06
 QS|                         eps_ppl:                                    1.0E-02
 QS|                         eps_ppnl:                                   1.0E-08
 QS| GAPW|      One center basis from orbital basis primitives
 QS| GAPW|                   eps_fit:                                    1.0E-04
 QS| GAPW|                   eps_iso:                                    1.0E-12
 QS| GAPW|                   eps_svd:                                    1.0E-08
 QS| GAPW|                   eps_cpc:                                    1.0E-12
 QS| GAPW|   atom-r-grid: quadrature:                                     GC_LOG
 QS| GAPW|      atom-s-grid:  max l :                                          6
 QS| GAPW|      max_l_rho0 :                                                   2


 ATOMIC KIND INFORMATION

  1. Atomic kind: B                                     Number of atoms:       1

     Orbital Basis Set                                        aug-DZVP-MOLOPT-ae

       Number of orbital shell sets:                                           2
       Number of orbital shells:                                              10
       Number of primitive Cartesian functions:                               12
       Number of Cartesian basis functions:                                   35
       Number of spherical basis functions:                                   30
       Norm type:                                                              2

       Normalised Cartesian orbitals:

                        Set   Shell   Orbital            Exponent    Coefficient

                          1       1    2s                0.082134       0.085473
                                                         0.140000       0.049675
                                                         0.279625      -0.030750
                                                         0.881274       0.022030
                                                         4.510873       0.000000

                          1       2    3px               0.082134      -0.004879
                                                         0.140000       0.000000
                                                         0.279625      -0.151722
                                                         0.881274      -0.583957
                                                         4.510873      -1.036243
                          1       2    3py               0.082134      -0.004879
                                                         0.140000       0.000000
                                                         0.279625      -0.151722
                                                         0.881274      -0.583957
                                                         4.510873      -1.036243
                          1       2    3pz               0.082134      -0.004879
                                                         0.140000       0.000000
                                                         0.279625      -0.151722
                                                         0.881274      -0.583957
                                                         4.510873      -1.036243

                          1       3    4px               0.082134       0.052233
                                                         0.140000       0.000000
                                                         0.279625       0.094300
                                                         0.881274      -0.581323
                                                         4.510873      -0.510604
                          1       3    4py               0.082134       0.052233
                                                         0.140000       0.000000
                                                         0.279625       0.094300
                                                         0.881274      -0.581323
                                                         4.510873      -0.510604
                          1       3    4pz               0.082134       0.052233
                                                         0.140000       0.000000
                                                         0.279625       0.094300
                                                         0.881274      -0.581323
                                                         4.510873      -0.510604

                          1       4    5px               0.082134       0.024659
                                                         0.140000       0.076570
                                                         0.279625      -0.053289
                                                         0.881274       0.410720
                                                         4.510873       0.000000
                          1       4    5py               0.082134       0.024659
                                                         0.140000       0.076570
                                                         0.279625      -0.053289
                                                         0.881274       0.410720
                                                         4.510873       0.000000
                          1       4    5pz               0.082134       0.024659
                                                         0.140000       0.076570
                                                         0.279625      -0.053289
                                                         0.881274       0.410720
                                                         4.510873       0.000000

                          1       5    4dx2              0.082134       0.000404
                                                         0.140000       0.000000
                                                         0.279625       0.111576
                                                         0.881274       0.641739
                                                         4.510873      -0.272354
                          1       5    4dxy              0.082134       0.000700
                                                         0.140000       0.000000
                                                         0.279625       0.193255
                                                         0.881274       1.111524
                                                         4.510873      -0.471731
                          1       5    4dxz              0.082134       0.000700
                                                         0.140000       0.000000
                                                         0.279625       0.193255
                                                         0.881274       1.111524
                                                         4.510873      -0.471731
                          1       5    4dy2              0.082134       0.000404
                                                         0.140000       0.000000
                                                         0.279625       0.111576
                                                         0.881274       0.641739
                                                         4.510873      -0.272354
                          1       5    4dyz              0.082134       0.000700
                                                         0.140000       0.000000
                                                         0.279625       0.193255
                                                         0.881274       1.111524
                                                         4.510873      -0.471731
                          1       5    4dz2              0.082134       0.000404
                                                         0.140000       0.000000
                                                         0.279625       0.111576
                                                         0.881274       0.641739
                                                         4.510873      -0.272354

                          1       6    5dx2              0.082134       0.036596
                                                         0.140000      -0.054919
                                                         0.279625      -0.008802
                                                         0.881274      -0.232953
                                                         4.510873       0.000000
                          1       6    5dxy              0.082134       0.063387
                                                         0.140000      -0.095122
                                                         0.279625      -0.015246
                                                         0.881274      -0.403486
                                                         4.510873       0.000000
                          1       6    5dxz              0.082134       0.063387
                                                         0.140000      -0.095122
                                                         0.279625      -0.015246
                                                         0.881274      -0.403486
                                                         4.510873       0.000000
                          1       6    5dy2              0.082134       0.036596
                                                         0.140000      -0.054919
                                                         0.279625      -0.008802
                                                         0.881274      -0.232953
                                                         4.510873       0.000000
                          1       6    5dyz              0.082134       0.063387
                                                         0.140000      -0.095122
                                                         0.279625      -0.015246
                                                         0.881274      -0.403486
                                                         4.510873       0.000000
                          1       6    5dz2              0.082134       0.036596
                                                         0.140000      -0.054919
                                                         0.279625      -0.008802
                                                         0.881274      -0.232953
                                                         4.510873       0.000000

                          1       7    5fx3              0.082134      -0.000468
                                                         0.140000       0.012301
                                                         0.279625       0.033988
                                                         0.881274       0.068820
                                                         4.510873       0.000000
                          1       7    5fx2y             0.082134      -0.001048
                                                         0.140000       0.027506
                                                         0.279625       0.075998
                                                         0.881274       0.153886
                                                         4.510873       0.000000
                          1       7    5fx2z             0.082134      -0.001048
                                                         0.140000       0.027506
                                                         0.279625       0.075998
                                                         0.881274       0.153886
                                                         4.510873       0.000000
                          1       7    5fxy2             0.082134      -0.001048
                                                         0.140000       0.027506
                                                         0.279625       0.075998
                                                         0.881274       0.153886
                                                         4.510873       0.000000
                          1       7    5fxyz             0.082134      -0.001814
                                                         0.140000       0.047643
                                                         0.279625       0.131633
                                                         0.881274       0.266539
                                                         4.510873       0.000000
                          1       7    5fxz2             0.082134      -0.001048
                                                         0.140000       0.027506
                                                         0.279625       0.075998
                                                         0.881274       0.153886
                                                         4.510873       0.000000
                          1       7    5fy3              0.082134      -0.000468
                                                         0.140000       0.012301
                                                         0.279625       0.033988
                                                         0.881274       0.068820
                                                         4.510873       0.000000
                          1       7    5fy2z             0.082134      -0.001048
                                                         0.140000       0.027506
                                                         0.279625       0.075998
                                                         0.881274       0.153886
                                                         4.510873       0.000000
                          1       7    5fyz2             0.082134      -0.001048
                                                         0.140000       0.027506
                                                         0.279625       0.075998
                                                         0.881274       0.153886
                                                         4.510873       0.000000
                          1       7    5fz3              0.082134      -0.000468
                                                         0.140000       0.012301
                                                         0.279625       0.033988
                                                         0.881274       0.068820
                                                         4.510873       0.000000

                          2       1    1s              839.324562      -0.573042
                                                       126.174643      -1.097170
                                                        28.339532      -1.625259
                                                         7.329111      -1.470436
                                                         2.208031      -0.468381
                                                         0.410209      -0.026981
                                                         0.151694      -0.023850

                          2       2    2s              839.324562       0.050684
                                                       126.174643      -0.115654
                                                        28.339532      -0.168560
                                                         7.329111      -0.289389
                                                         2.208031      -0.246292
                                                         0.410209       0.238157
                                                         0.151694       0.084355

                          2       3    3s              839.324562      -2.590681
                                                       126.174643       0.127370
                                                        28.339532      -1.260776
                                                         7.329111      -0.567183
                                                         2.208031      -0.073452
                                                         0.410209      -0.458063
                                                         0.151694       0.280188

     RI Auxiliary Basis Set             RI_aug-DZVP-MOLOPT-ae_N_RI_035_s_p_d_f_g

       Number of orbital shell sets:                                          13
       Number of orbital shells:                                              13
       Number of primitive Cartesian functions:                               13
       Number of Cartesian basis functions:                                   40
       Number of spherical basis functions:                                   35
       Norm type:                                                              2

       Normalised Cartesian orbitals:

                        Set   Shell   Orbital            Exponent    Coefficient

                          1       1    1s                0.155297       0.176312

                          2       1   11dx2              0.191101       0.090912
                          2       1   11dxy              0.191101       0.157464
                          2       1   11dxz              0.191101       0.157464
                          2       1   11dy2              0.191101       0.090912
                          2       1   11dyz              0.191101       0.157464
                          2       1   11dz2              0.191101       0.090912

                          3       1    7px               0.280108       0.290467
                          3       1    7py               0.280108       0.290467
                          3       1    7pz               0.280108       0.290467

                          4       1    2s                0.348203       0.323061

                          5       1   13fx3              0.401700       0.189118
                          5       1   13fx2y             0.401700       0.422882
                          5       1   13fx2z             0.401700       0.422882
                          5       1   13fxy2             0.401700       0.422882
                          5       1   13fxyz             0.401700       0.732452
                          5       1   13fxz2             0.401700       0.422882
                          5       1   13fy3              0.401700       0.189118
                          5       1   13fy2z             0.401700       0.422882
                          5       1   13fyz2             0.401700       0.422882
                          5       1   13fz3              0.401700       0.189118

                          6       1    8px               0.444336       0.517106
                          6       1    8py               0.444336       0.517106
                          6       1    8pz               0.444336       0.517106

                          7       1   12dx2              0.761687       1.022158
                          7       1   12dxy              0.761687       1.770430
                          7       1   12dxz              0.761687       1.770430
                          7       1   12dy2              0.761687       1.022158
                          7       1   12dyz              0.761687       1.770430
                          7       1   12dz2              0.761687       1.022158

                          8       1    3s                1.114597       0.773123

                          9       1    9px               1.400889       2.172425
                          9       1    9py               1.400889       2.172425
                          9       1    9pz               1.400889       2.172425

                         10       1    4s                3.952925       1.998016

                         11       1   10px               6.658811      15.247055
                         11       1   10py               6.658811      15.247055
                         11       1   10pz               6.658811      15.247055

                         12       1    5s               13.787097       5.099349

                         13       1    6s               47.491635      12.893563

       Atomic covalent radius [Angstrom]:                                  0.820

       Atomic van der Waals radius [Angstrom]:                             1.920

     The atoms of this atomic kind are PAW atoms (GAPW):
       Hard Gaussian function radius:                                      1.512
       Rho0 radius:                                                        1.512
       Maximum GTO radius used for PAW projector construction:            24.566

     GAPW Soft Basis Set                                 aug-DZVP-MOLOPT-ae_soft

       Number of orbital shell sets:                                           2
       Number of orbital shells:                                              10
       Number of primitive Cartesian functions:                                8
       Number of Cartesian basis functions:                                   35
       Number of spherical basis functions:                                   30
       Norm type:                                                              2

       Normalised Cartesian orbitals:

                        Set   Shell   Orbital            Exponent    Coefficient

                          1       1    2s                0.082134       0.085473
                                                         0.140000       0.049675
                                                         0.279625      -0.030750
                                                         0.881274       0.022030
                                                         4.510873       0.000000

                          1       2    3px               0.082134      -0.004879
                                                         0.140000       0.000000
                                                         0.279625      -0.151722
                                                         0.881274      -0.583957
                                                         4.510873       0.000000
                          1       2    3py               0.082134      -0.004879
                                                         0.140000       0.000000
                                                         0.279625      -0.151722
                                                         0.881274      -0.583957
                                                         4.510873       0.000000
                          1       2    3pz               0.082134      -0.004879
                                                         0.140000       0.000000
                                                         0.279625      -0.151722
                                                         0.881274      -0.583957
                                                         4.510873       0.000000

                          1       3    4px               0.082134       0.052233
                                                         0.140000       0.000000
                                                         0.279625       0.094300
                                                         0.881274      -0.581323
                                                         4.510873       0.000000
                          1       3    4py               0.082134       0.052233
                                                         0.140000       0.000000
                                                         0.279625       0.094300
                                                         0.881274      -0.581323
                                                         4.510873       0.000000
                          1       3    4pz               0.082134       0.052233
                                                         0.140000       0.000000
                                                         0.279625       0.094300
                                                         0.881274      -0.581323
                                                         4.510873       0.000000

                          1       4    5px               0.082134       0.024659
                                                         0.140000       0.076570
                                                         0.279625      -0.053289
                                                         0.881274       0.410720
                                                         4.510873       0.000000
                          1       4    5py               0.082134       0.024659
                                                         0.140000       0.076570
                                                         0.279625      -0.053289
                                                         0.881274       0.410720
                                                         4.510873       0.000000
                          1       4    5pz               0.082134       0.024659
                                                         0.140000       0.076570
                                                         0.279625      -0.053289
                                                         0.881274       0.410720
                                                         4.510873       0.000000

                          1       5    4dx2              0.082134       0.000404
                                                         0.140000       0.000000
                                                         0.279625       0.111576
                                                         0.881274       0.641739
                                                         4.510873       0.000000
                          1       5    4dxy              0.082134       0.000700
                                                         0.140000       0.000000
                                                         0.279625       0.193255
                                                         0.881274       1.111524
                                                         4.510873       0.000000
                          1       5    4dxz              0.082134       0.000700
                                                         0.140000       0.000000
                                                         0.279625       0.193255
                                                         0.881274       1.111524
                                                         4.510873       0.000000
                          1       5    4dy2              0.082134       0.000404
                                                         0.140000       0.000000
                                                         0.279625       0.111576
                                                         0.881274       0.641739
                                                         4.510873       0.000000
                          1       5    4dyz              0.082134       0.000700
                                                         0.140000       0.000000
                                                         0.279625       0.193255
                                                         0.881274       1.111524
                                                         4.510873       0.000000
                          1       5    4dz2              0.082134       0.000404
                                                         0.140000       0.000000
                                                         0.279625       0.111576
                                                         0.881274       0.641739
                                                         4.510873       0.000000

                          1       6    5dx2              0.082134       0.036596
                                                         0.140000      -0.054919
                                                         0.279625      -0.008802
                                                         0.881274      -0.232953
                                                         4.510873       0.000000
                          1       6    5dxy              0.082134       0.063387
                                                         0.140000      -0.095122
                                                         0.279625      -0.015246
                                                         0.881274      -0.403486
                                                         4.510873       0.000000
                          1       6    5dxz              0.082134       0.063387
                                                         0.140000      -0.095122
                                                         0.279625      -0.015246
                                                         0.881274      -0.403486
                                                         4.510873       0.000000
                          1       6    5dy2              0.082134       0.036596
                                                         0.140000      -0.054919
                                                         0.279625      -0.008802
                                                         0.881274      -0.232953
                                                         4.510873       0.000000
                          1       6    5dyz              0.082134       0.063387
                                                         0.140000      -0.095122
                                                         0.279625      -0.015246
                                                         0.881274      -0.403486
                                                         4.510873       0.000000
                          1       6    5dz2              0.082134       0.036596
                                                         0.140000      -0.054919
                                                         0.279625      -0.008802
                                                         0.881274      -0.232953
                                                         4.510873       0.000000

                          1       7    5fx3              0.082134      -0.000468
                                                         0.140000       0.012301
                                                         0.279625       0.033988
                                                         0.881274       0.068820
                                                         4.510873       0.000000
                          1       7    5fx2y             0.082134      -0.001048
                                                         0.140000       0.027506
                                                         0.279625       0.075998
                                                         0.881274       0.153886
                                                         4.510873       0.000000
                          1       7    5fx2z             0.082134      -0.001048
                                                         0.140000       0.027506
                                                         0.279625       0.075998
                                                         0.881274       0.153886
                                                         4.510873       0.000000
                          1       7    5fxy2             0.082134      -0.001048
                                                         0.140000       0.027506
                                                         0.279625       0.075998
                                                         0.881274       0.153886
                                                         4.510873       0.000000
                          1       7    5fxyz             0.082134      -0.001814
                                                         0.140000       0.047643
                                                         0.279625       0.131633
                                                         0.881274       0.266539
                                                         4.510873       0.000000
                          1       7    5fxz2             0.082134      -0.001048
                                                         0.140000       0.027506
                                                         0.279625       0.075998
                                                         0.881274       0.153886
                                                         4.510873       0.000000
                          1       7    5fy3              0.082134      -0.000468
                                                         0.140000       0.012301
                                                         0.279625       0.033988
                                                         0.881274       0.068820
                                                         4.510873       0.000000
                          1       7    5fy2z             0.082134      -0.001048
                                                         0.140000       0.027506
                                                         0.279625       0.075998
                                                         0.881274       0.153886
                                                         4.510873       0.000000
                          1       7    5fyz2             0.082134      -0.001048
                                                         0.140000       0.027506
                                                         0.279625       0.075998
                                                         0.881274       0.153886
                                                         4.510873       0.000000
                          1       7    5fz3              0.082134      -0.000468
                                                         0.140000       0.012301
                                                         0.279625       0.033988
                                                         0.881274       0.068820
                                                         4.510873       0.000000

                          2       1    1s                2.208031      -0.468381
                                                         0.410209      -0.026981
                                                         0.151694      -0.023850

                          2       2    2s                2.208031      -0.246292
                                                         0.410209       0.238157
                                                         0.151694       0.084355

                          2       3    3s                2.208031      -0.073452
                                                         0.410209      -0.458063
                                                         0.151694       0.280188

     AE Potential information for                                            ALL

       Description:                                       All-electron potential
                                          Krack, Parrinello, PCCP 2, 2105 (2000)

       Gaussian exponent of the core charge distribution:               2.655410
       Electronic configuration (s p d ...):                           4   1   0

  2. Atomic kind: N                                     Number of atoms:       1

     Orbital Basis Set                                        aug-DZVP-MOLOPT-ae

       Number of orbital shell sets:                                           2
       Number of orbital shells:                                              10
       Number of primitive Cartesian functions:                               12
       Number of Cartesian basis functions:                                   35
       Number of spherical basis functions:                                   30
       Norm type:                                                              2

       Normalised Cartesian orbitals:

                        Set   Shell   Orbital            Exponent    Coefficient

                          1       1    2s                0.060000      -0.096639
                                                         0.166384       0.037538
                                                         0.634073      -0.055669
                                                         2.325354       0.000000
                                                        12.268174       0.000000

                          1       2    3px               0.060000       0.000000
                                                         0.166384      -0.031930
                                                         0.634073      -0.492962
                                                         2.325354      -1.380142
                                                        12.268174      -2.349358
                          1       2    3py               0.060000       0.000000
                                                         0.166384      -0.031930
                                                         0.634073      -0.492962
                                                         2.325354      -1.380142
                                                        12.268174      -2.349358
                          1       2    3pz               0.060000       0.000000
                                                         0.166384      -0.031930
                                                         0.634073      -0.492962
                                                         2.325354      -1.380142
                                                        12.268174      -2.349358

                          1       3    4px               0.060000       0.000000
                                                         0.166384       0.169694
                                                         0.634073      -0.220766
                                                         2.325354      -0.809234
                                                        12.268174      -0.998521
                          1       3    4py               0.060000       0.000000
                                                         0.166384       0.169694
                                                         0.634073      -0.220766
                                                         2.325354      -0.809234
                                                        12.268174      -0.998521
                          1       3    4pz               0.060000       0.000000
                                                         0.166384       0.169694
                                                         0.634073      -0.220766
                                                         2.325354      -0.809234
                                                        12.268174      -0.998521

                          1       4    5px               0.060000       0.028594
                                                         0.166384       0.063224
                                                         0.634073      -0.046183
                                                         2.325354       0.000000
                                                        12.268174       0.000000
                          1       4    5py               0.060000       0.028594
                                                         0.166384       0.063224
                                                         0.634073      -0.046183
                                                         2.325354       0.000000
                                                        12.268174       0.000000
                          1       4    5pz               0.060000       0.028594
                                                         0.166384       0.063224
                                                         0.634073      -0.046183
                                                         2.325354       0.000000
                                                        12.268174       0.000000

                          1       5    4dx2              0.060000       0.000000
                                                         0.166384       0.019402
                                                         0.634073       0.555487
                                                         2.325354       1.255926
                                                        12.268174      -0.426175
                          1       5    4dxy              0.060000       0.000000
                                                         0.166384       0.033606
                                                         0.634073       0.962132
                                                         2.325354       2.175327
                                                        12.268174      -0.738157
                          1       5    4dxz              0.060000       0.000000
                                                         0.166384       0.033606
                                                         0.634073       0.962132
                                                         2.325354       2.175327
                                                        12.268174      -0.738157
                          1       5    4dy2              0.060000       0.000000
                                                         0.166384       0.019402
                                                         0.634073       0.555487
                                                         2.325354       1.255926
                                                        12.268174      -0.426175
                          1       5    4dyz              0.060000       0.000000
                                                         0.166384       0.033606
                                                         0.634073       0.962132
                                                         2.325354       2.175327
                                                        12.268174      -0.738157
                          1       5    4dz2              0.060000       0.000000
                                                         0.166384       0.019402
                                                         0.634073       0.555487
                                                         2.325354       1.255926
                                                        12.268174      -0.426175

                          1       6    5dx2              0.060000      -0.008089
                                                         0.166384      -0.027907
                                                         0.634073      -0.057221
                                                         2.325354       0.000000
                                                        12.268174       0.000000
                          1       6    5dxy              0.060000      -0.014011
                                                         0.166384      -0.048336
                                                         0.634073      -0.099109
                                                         2.325354       0.000000
                                                        12.268174       0.000000
                          1       6    5dxz              0.060000      -0.014011
                                                         0.166384      -0.048336
                                                         0.634073      -0.099109
                                                         2.325354       0.000000
                                                        12.268174       0.000000
                          1       6    5dy2              0.060000      -0.008089
                                                         0.166384      -0.027907
                                                         0.634073      -0.057221
                                                         2.325354       0.000000
                                                        12.268174       0.000000
                          1       6    5dyz              0.060000      -0.014011
                                                         0.166384      -0.048336
                                                         0.634073      -0.099109
                                                         2.325354       0.000000
                                                        12.268174       0.000000
                          1       6    5dz2              0.060000      -0.008089
                                                         0.166384      -0.027907
                                                         0.634073      -0.057221
                                                         2.325354       0.000000
                                                        12.268174       0.000000

                          1       7    5fx3              0.060000       0.000067
                                                         0.166384       0.012645
                                                         0.634073       0.328269
                                                         2.325354       1.687172
                                                        12.268174       0.000000
                          1       7    5fx2y             0.060000       0.000150
                                                         0.166384       0.028275
                                                         0.634073       0.734031
                                                         2.325354       3.772631
                                                        12.268174       0.000000
                          1       7    5fx2z             0.060000       0.000150
                                                         0.166384       0.028275
                                                         0.634073       0.734031
                                                         2.325354       3.772631
                                                        12.268174       0.000000
                          1       7    5fxy2             0.060000       0.000150
                                                         0.166384       0.028275
                                                         0.634073       0.734031
                                                         2.325354       3.772631
                                                        12.268174       0.000000
                          1       7    5fxyz             0.060000       0.000260
                                                         0.166384       0.048973
                                                         0.634073       1.271379
                                                         2.325354       6.534389
                                                        12.268174       0.000000
                          1       7    5fxz2             0.060000       0.000150
                                                         0.166384       0.028275
                                                         0.634073       0.734031
                                                         2.325354       3.772631
                                                        12.268174       0.000000
                          1       7    5fy3              0.060000       0.000067
                                                         0.166384       0.012645
                                                         0.634073       0.328269
                                                         2.325354       1.687172
                                                        12.268174       0.000000
                          1       7    5fy2z             0.060000       0.000150
                                                         0.166384       0.028275
                                                         0.634073       0.734031
                                                         2.325354       3.772631
                                                        12.268174       0.000000
                          1       7    5fyz2             0.060000       0.000150
                                                         0.166384       0.028275
                                                         0.634073       0.734031
                                                         2.325354       3.772631
                                                        12.268174       0.000000
                          1       7    5fz3              0.060000       0.000067
                                                         0.166384       0.012645
                                                         0.634073       0.328269
                                                         2.325354       1.687172
                                                        12.268174       0.000000

                          2       1    1s                0.191012      -0.002582
                                                         0.666629       0.012902
                                                         4.403487      -0.858326
                                                        14.651380      -2.749170
                                                        57.692026      -2.958222
                                                       257.997554      -1.897300
                                                      1713.054433      -1.166486

                          2       2    2s                0.191012       0.079194
                                                         0.666629       0.351708
                                                         4.403487       0.009155
                                                        14.651380       0.000424
                                                        57.692026       0.772862
                                                       257.997554      -0.458166
                                                      1713.054433       0.520658

                          2       3    3s                0.191012       0.300064
                                                         0.666629      -0.436823
                                                         4.403487      -0.072962
                                                        14.651380      -0.095292
                                                        57.692026      -1.262420
                                                       257.997554       0.741400
                                                      1713.054433      -0.270364

     RI Auxiliary Basis Set             RI_aug-DZVP-MOLOPT-ae_N_RI_043_s_p_d_f_g

       Number of orbital shell sets:                                          13
       Number of orbital shells:                                              13
       Number of primitive Cartesian functions:                               13
       Number of Cartesian basis functions:                                   54
       Number of spherical basis functions:                                   43
       Norm type:                                                              2

       Normalised Cartesian orbitals:

                        Set   Shell   Orbital            Exponent    Coefficient

                          1       1    1s                0.477448       0.409360

                          2       1    6px               0.570356       0.706517
                          2       1    6py               0.570356       0.706517
                          2       1    6pz               0.570356       0.706517

                          3       1    2s                0.672670       0.529373

                          4       1   10dx2              0.678989       0.835930
                          4       1   10dxy              0.678989       1.447873
                          4       1   10dxz              0.678989       1.447873
                          4       1   10dy2              0.678989       0.835930
                          4       1   10dyz              0.678989       1.447873
                          4       1   10dz2              0.678989       0.835930

                          5       1    7px               0.891964       1.235590
                          5       1    7py               0.891964       1.235590
                          5       1    7pz               0.891964       1.235590

                          6       1   13gx4              1.001691       1.118031
                          6       1   13gx3y             1.001691       2.958031
                          6       1   13gx3z             1.001691       2.958031
                          6       1   13gx2y2            1.001691       3.818802
                          6       1   13gx2yz            1.001691       6.614359
                          6       1   13gx2z2            1.001691       3.818802
                          6       1   13gxy3             1.001691       2.958031
                          6       1   13gxy2z            1.001691       6.614359
                          6       1   13gxyz2            1.001691       6.614359
                          6       1   13gxz3             1.001691       2.958031
                          6       1   13gy4              1.001691       1.118031
                          6       1   13gy3z             1.001691       2.958031
                          6       1   13gy2z2            1.001691       3.818802
                          6       1   13gyz3             1.001691       2.958031
                          6       1   13gz4              1.001691       1.118031

                          7       1   12fx3              1.184087       2.153115
                          7       1   12fx2y             1.184087       4.814512
                          7       1   12fx2z             1.184087       4.814512
                          7       1   12fxy2             1.184087       4.814512
                          7       1   12fxyz             1.184087       8.338979
                          7       1   12fxz2             1.184087       4.814512
                          7       1   12fy3              1.184087       2.153115
                          7       1   12fy2z             1.184087       4.814512
                          7       1   12fyz2             1.184087       4.814512
                          7       1   12fz3              1.184087       2.153115

                          8       1   11dx2              1.969880       5.391123
                          8       1   11dxy              1.969880       9.337699
                          8       1   11dxz              1.969880       9.337699
                          8       1   11dy2              1.969880       5.391123
                          8       1   11dyz              1.969880       9.337699
                          8       1   11dz2              1.969880       5.391123

                          9       1    3s                3.035331       1.638946

                         10       1    8px               3.701096       7.317336
                         10       1    8py               3.701096       7.317336
                         10       1    8pz               3.701096       7.317336

                         11       1    4s               19.059127       6.501107

                         12       1    9px              20.250869      61.234286
                         12       1    9py              20.250869      61.234286
                         12       1    9pz              20.250869      61.234286

                         13       1    5s              106.541791      23.634700

       Atomic covalent radius [Angstrom]:                                  0.750

       Atomic van der Waals radius [Angstrom]:                             1.550

     The atoms of this atomic kind are PAW atoms (GAPW):
       Hard Gaussian function radius:                                      1.512
       Rho0 radius:                                                        1.512
       Maximum GTO radius used for PAW projector construction:            24.566

     GAPW Soft Basis Set                                 aug-DZVP-MOLOPT-ae_soft

       Number of orbital shell sets:                                           2
       Number of orbital shells:                                              10
       Number of primitive Cartesian functions:                                6
       Number of Cartesian basis functions:                                   35
       Number of spherical basis functions:                                   30
       Norm type:                                                              2

       Normalised Cartesian orbitals:

                        Set   Shell   Orbital            Exponent    Coefficient

                          1       1    2s                0.060000      -0.096639
                                                         0.166384       0.037538
                                                         0.634073      -0.055669
                                                         2.325354       0.000000

                          1       2    3px               0.060000       0.000000
                                                         0.166384      -0.031930
                                                         0.634073      -0.492962
                                                         2.325354      -1.380142
                          1       2    3py               0.060000       0.000000
                                                         0.166384      -0.031930
                                                         0.634073      -0.492962
                                                         2.325354      -1.380142
                          1       2    3pz               0.060000       0.000000
                                                         0.166384      -0.031930
                                                         0.634073      -0.492962
                                                         2.325354      -1.380142

                          1       3    4px               0.060000       0.000000
                                                         0.166384       0.169694
                                                         0.634073      -0.220766
                                                         2.325354      -0.809234
                          1       3    4py               0.060000       0.000000
                                                         0.166384       0.169694
                                                         0.634073      -0.220766
                                                         2.325354      -0.809234
                          1       3    4pz               0.060000       0.000000
                                                         0.166384       0.169694
                                                         0.634073      -0.220766
                                                         2.325354      -0.809234

                          1       4    5px               0.060000       0.028594
                                                         0.166384       0.063224
                                                         0.634073      -0.046183
                                                         2.325354       0.000000
                          1       4    5py               0.060000       0.028594
                                                         0.166384       0.063224
                                                         0.634073      -0.046183
                                                         2.325354       0.000000
                          1       4    5pz               0.060000       0.028594
                                                         0.166384       0.063224
                                                         0.634073      -0.046183
                                                         2.325354       0.000000

                          1       5    4dx2              0.060000       0.000000
                                                         0.166384       0.019402
                                                         0.634073       0.555487
                                                         2.325354       1.255926
                          1       5    4dxy              0.060000       0.000000
                                                         0.166384       0.033606
                                                         0.634073       0.962132
                                                         2.325354       2.175327
                          1       5    4dxz              0.060000       0.000000
                                                         0.166384       0.033606
                                                         0.634073       0.962132
                                                         2.325354       2.175327
                          1       5    4dy2              0.060000       0.000000
                                                         0.166384       0.019402
                                                         0.634073       0.555487
                                                         2.325354       1.255926
                          1       5    4dyz              0.060000       0.000000
                                                         0.166384       0.033606
                                                         0.634073       0.962132
                                                         2.325354       2.175327
                          1       5    4dz2              0.060000       0.000000
                                                         0.166384       0.019402
                                                         0.634073       0.555487
                                                         2.325354       1.255926

                          1       6    5dx2              0.060000      -0.008089
                                                         0.166384      -0.027907
                                                         0.634073      -0.057221
                                                         2.325354       0.000000
                          1       6    5dxy              0.060000      -0.014011
                                                         0.166384      -0.048336
                                                         0.634073      -0.099109
                                                         2.325354       0.000000
                          1       6    5dxz              0.060000      -0.014011
                                                         0.166384      -0.048336
                                                         0.634073      -0.099109
                                                         2.325354       0.000000
                          1       6    5dy2              0.060000      -0.008089
                                                         0.166384      -0.027907
                                                         0.634073      -0.057221
                                                         2.325354       0.000000
                          1       6    5dyz              0.060000      -0.014011
                                                         0.166384      -0.048336
                                                         0.634073      -0.099109
                                                         2.325354       0.000000
                          1       6    5dz2              0.060000      -0.008089
                                                         0.166384      -0.027907
                                                         0.634073      -0.057221
                                                         2.325354       0.000000

                          1       7    5fx3              0.060000       0.000067
                                                         0.166384       0.012645
                                                         0.634073       0.328269
                                                         2.325354       1.687172
                          1       7    5fx2y             0.060000       0.000150
                                                         0.166384       0.028275
                                                         0.634073       0.734031
                                                         2.325354       3.772631
                          1       7    5fx2z             0.060000       0.000150
                                                         0.166384       0.028275
                                                         0.634073       0.734031
                                                         2.325354       3.772631
                          1       7    5fxy2             0.060000       0.000150
                                                         0.166384       0.028275
                                                         0.634073       0.734031
                                                         2.325354       3.772631
[...]
   418 Broy./Diag. 0.10E+00    5.4     0.06333420       -79.8160978887  1.72E-02
   419 Broy./Diag. 0.10E+00    5.4     0.08109115       -79.6898913842  1.26E-01
   420 Broy./Diag. 0.10E+00    5.4     0.05436453       -79.4474907234  2.42E-01
   421 Broy./Diag. 0.10E+00    5.5     0.08148597       -79.3937404441  5.38E-02
   422 Broy./Diag. 0.10E+00    5.4     0.08410441       -79.5988618610 -2.05E-01
   423 Broy./Diag. 0.10E+00    5.4     0.11956350       -79.4395805754  1.59E-01
   424 Broy./Diag. 0.10E+00    5.4     0.36749237       -79.3802412724  5.93E-02
   425 Broy./Diag. 0.10E+00    5.5     0.16569710       -78.8470867673  5.33E-01
   426 Broy./Diag. 0.10E+00    5.4     0.09850726       -79.2434893144 -3.96E-01
   427 Broy./Diag. 0.10E+00    5.4     0.05906645       -79.2483748172 -4.89E-03
   428 Broy./Diag. 0.10E+00    5.4     0.02532012       -79.1261316856  1.22E-01
   429 Broy./Diag. 0.10E+00    5.4     0.04313048       -79.0765189460  4.96E-02
   430 Broy./Diag. 0.10E+00    5.4     0.04797883       -78.9131457957  1.63E-01
   431 Broy./Diag. 0.10E+00    5.4     0.03450381       -78.9481257519 -3.50E-02
   432 Broy./Diag. 0.10E+00    5.5     0.03842812       -78.8263280896  1.22E-01
   433 Broy./Diag. 0.10E+00    5.5     0.23040189       -78.8114395806  1.49E-02
   434 Broy./Diag. 0.10E+00    5.4     0.14541267       -79.4301778844 -6.19E-01
   435 Broy./Diag. 0.10E+00    5.4     0.18818674       -79.7945010959 -3.64E-01
   436 Broy./Diag. 0.10E+00    5.4     0.12101100       -80.1839073275 -3.89E-01
   437 Broy./Diag. 0.10E+00    5.5     0.03938414       -80.3278510264 -1.44E-01
   438 Broy./Diag. 0.10E+00    5.5     0.02424201       -80.2746227317  5.32E-02
   439 Broy./Diag. 0.10E+00    5.4     0.02889908       -80.2665729584  8.05E-03
   440 Broy./Diag. 0.10E+00    5.4     0.03699200       -80.3073568354 -4.08E-02
   441 Broy./Diag. 0.10E+00    5.5     0.03983438       -80.3882049476 -8.08E-02
   442 Broy./Diag. 0.10E+00    5.5     0.03555231       -80.4174001090 -2.92E-02
   443 Broy./Diag. 0.10E+00    5.6     0.04791297       -80.3804403897  3.70E-02
   444 Broy./Diag. 0.10E+00    5.4     0.18205478       -80.4150604687 -3.46E-02
   445 Broy./Diag. 0.10E+00    5.4     0.06413447       -80.5234108563 -1.08E-01
   446 Broy./Diag. 0.10E+00    5.4     0.18992530       -80.3919254034  1.31E-01
   447 Broy./Diag. 0.10E+00    5.5     0.30818829       -79.9552610516  4.37E-01
   448 Broy./Diag. 0.10E+00    5.4     0.19411370       -79.1643368019  7.91E-01
   449 Broy./Diag. 0.10E+00    5.5     0.12159438       -79.0145144994  1.50E-01
   450 Broy./Diag. 0.10E+00    5.4     0.04789751       -79.2517987526 -2.37E-01
   451 Broy./Diag. 0.10E+00    5.4     0.02860245       -79.3349870135 -8.32E-02
   452 Broy./Diag. 0.10E+00    5.4     0.04308879       -79.3354923999 -5.05E-04
   453 Broy./Diag. 0.10E+00    5.4     0.07865473       -79.3925203062 -5.70E-02
   454 Broy./Diag. 0.10E+00    5.4     0.09212736       -79.5167969730 -1.24E-01
   455 Broy./Diag. 0.10E+00    5.4     0.09609092       -79.5731421746 -5.63E-02
   456 Broy./Diag. 0.10E+00    5.4     0.08623612       -79.5738604817 -7.18E-04
   457 Broy./Diag. 0.10E+00    5.5     0.06388854       -79.5620625203  1.18E-02
   458 Broy./Diag. 0.10E+00    5.6     0.05566345       -79.5451055249  1.70E-02
   459 Broy./Diag. 0.10E+00    5.4     0.04418389       -79.5223783581  2.27E-02
   460 Broy./Diag. 0.10E+00    5.4     0.03145711       -79.5253783693 -3.00E-03
   461 Broy./Diag. 0.10E+00    5.4     0.02429390       -79.5077683803  1.76E-02
   462 Broy./Diag. 0.10E+00    5.4     0.03113894       -79.4449134668  6.29E-02
   463 Broy./Diag. 0.10E+00    5.4     0.05773912       -79.3594840127  8.54E-02
   464 Broy./Diag. 0.10E+00    5.4     0.04326065       -79.2560068609  1.03E-01
   465 Broy./Diag. 0.10E+00    5.5     0.07287128       -79.2150350945  4.10E-02
   466 Broy./Diag. 0.10E+00    5.4     0.04535850       -79.0459099242  1.69E-01
   467 Broy./Diag. 0.10E+00    5.4     0.06887363       -79.0136087778  3.23E-02
   468 Broy./Diag. 0.10E+00    5.4     0.12629343       -79.0214156958 -7.81E-03
   469 Broy./Diag. 0.10E+00    5.4     0.15402421       -78.9939740054  2.74E-02
   470 Broy./Diag. 0.10E+00    5.5     0.13171194       -79.1900874629 -1.96E-01
   471 Broy./Diag. 0.10E+00    5.4     0.13764202       -79.3377868221 -1.48E-01
   472 Broy./Diag. 0.10E+00    5.4     0.07486052       -79.2100325469  1.28E-01
   473 Broy./Diag. 0.10E+00    5.5     0.05962851       -79.2549032661 -4.49E-02
   474 Broy./Diag. 0.10E+00    5.4     0.05244290       -79.1930940541  6.18E-02
   475 Broy./Diag. 0.10E+00    5.4     0.04506901       -79.1296903535  6.34E-02
   476 Broy./Diag. 0.10E+00    5.4     0.03256471       -79.1430776220 -1.34E-02
   477 Broy./Diag. 0.10E+00    5.4     0.02620262       -79.0858261849  5.73E-02
   478 Broy./Diag. 0.10E+00    5.4     0.04239300       -79.0436622094  4.22E-02
   479 Broy./Diag. 0.10E+00    5.4     0.04061341       -79.1907715376 -1.47E-01
   480 Broy./Diag. 0.10E+00    5.4     0.03156140       -79.2992772286 -1.09E-01
   481 Broy./Diag. 0.10E+00    5.5     0.02918842       -79.2384742069  6.08E-02
   482 Broy./Diag. 0.10E+00    5.5     0.06993365       -79.2599203993 -2.14E-02
   483 Broy./Diag. 0.10E+00    5.4     0.05756646       -79.3643850525 -1.04E-01
   484 Broy./Diag. 0.10E+00    5.4     0.05135849       -79.3169457072  4.74E-02
   485 Broy./Diag. 0.10E+00    5.4     0.01792398       -79.1581989336  1.59E-01
   486 Broy./Diag. 0.10E+00    5.5     0.03683512       -79.1308887821  2.73E-02
   487 Broy./Diag. 0.10E+00    5.5     0.03225261       -79.1239472398  6.94E-03
   488 Broy./Diag. 0.10E+00    5.4     0.04460831       -79.2044199438 -8.05E-02
   489 Broy./Diag. 0.10E+00    5.5     0.11879062       -79.2620265553 -5.76E-02
   490 Broy./Diag. 0.10E+00    5.4     0.07670537       -79.5229843488 -2.61E-01
   491 Broy./Diag. 0.10E+00    5.5     0.08128554       -79.6093118843 -8.63E-02
   492 Broy./Diag. 0.10E+00    5.5     0.09387551       -79.6260930904 -1.68E-02
   493 Broy./Diag. 0.10E+00    5.5     0.09848859       -79.5863944250  3.97E-02
   494 Broy./Diag. 0.10E+00    5.4     0.09004489       -79.5397490961  4.66E-02
   495 Broy./Diag. 0.10E+00    5.4     0.07785172       -79.5252403573  1.45E-02
   496 Broy./Diag. 0.10E+00    5.4     0.07101640       -79.5033667652  2.19E-02
   497 Broy./Diag. 0.10E+00    5.6     0.05786781       -79.4390171945  6.43E-02
   498 Broy./Diag. 0.10E+00    5.4     0.04998187       -79.3525319251  8.65E-02
   499 Broy./Diag. 0.10E+00    5.4     0.06429325       -79.3595999349 -7.07E-03
   500 Broy./Diag. 0.10E+00    5.5     0.09526791       -79.3904966345 -3.09E-02

  Leaving inner SCF loop after reaching   500 steps.


  Electronic density on regular grids:         -8.3902826974        3.6097173026
  Core density on regular grids:               12.0000000000        0.0000000000
  Hard and soft densities (Lebedev):          -39.5183930155      -35.8780863473
  Total Rho_soft + Rho1_hard - Rho1_soft      -12.0305893656
  Total charge density (r-space):              -0.0305893656
  Total Rho_soft + Rho0_soft (g-space):        -0.0305893833

  Overlap energy of the core charge distribution:               0.00001993455823
  Self energy of the core charge distribution:                -64.05191455199152
  Core Hamiltonian energy:                                    -14.52173022591589
  Hartree energy:                                              16.85268742080969
  Exchange-correlation energy:                                 -2.77284248873050
  Hartree-Fock Exchange energy:                                -2.57222828843613

  GAPW| Exc from hard and soft atomic rho1:                    -5.34380443969392
  GAPW| local Eh = 1 center integrals:                         -6.98068399512926

  Total energy:                                               -79.39049663452928

 *******************************************************************************
 *   ___                                                                       *
 *  /   \                                                                      *
 * [ABORT]                                                                     *
 *  \___/     SCF run NOT converged. To continue the calculation regardless,   *
 *    |             please set the keyword IGNORE_CONVERGENCE_FAILURE.         *
 *  O/|                                                                        *
 * /| |                                                                        *
 * / \                                                            qs_scf.F:611 *
 *******************************************************************************


 ===== Routine Calling Stack ===== 

            3 scf_env_do_scf
            2 qs_energies
            1 CP2K

 *******************************************************************************
 *   ___                                                                       *
 *  /   \                                                                      *
 * [ABORT]                                                                     *
 *  \___/     SCF run NOT converged. To continue the calculation regardless,   *
 *    |             please set the keyword IGNORE_CONVERGENCE_FAILURE.         *
 *  O/|                                                                        *
 * /| |                                                                        *
 * / \                                                            qs_scf.F:611 *
 *******************************************************************************


 ===== Routine Calling Stack ===== 

            3 scf_env_do_scf
            2 qs_energies
            1 CP2K

 *******************************************************************************
 *   ___                                                                       *
 *  /   \                                                                      *
 * [ABORT]                                                                     *
 *  \___/     SCF run NOT converged. To continue the calculation regardless,   *
 *    |             please set the keyword IGNORE_CONVERGENCE_FAILURE.         *
 *  O/|                                                                        *
 * /| |                                                                        *
 * / \                                                            qs_scf.F:611 *
 *******************************************************************************


 ===== Routine Calling Stack ===== 

            3 scf_env_do_scf
            2 qs_energies
            1 CP2K

 *******************************************************************************
 *   ___                                                                       *
 *  /   \                                                                      *
 * [ABORT]                                                                     *
 *  \___/     SCF run NOT converged. To continue the calculation regardless,   *
 *    |             please set the keyword IGNORE_CONVERGENCE_FAILURE.         *
 *  O/|                                                                        *
 * /| |                                                                        *
 * / \                                                            qs_scf.F:611 *
 *******************************************************************************


 ===== Routine Calling Stack ===== 

            3 scf_env_do_scf
            2 qs_energies
            1 CP2K

 *******************************************************************************
 *   ___                                                                       *
 *  /   \                                                                      *
 * [ABORT]                                                                     *
 *  \___/     SCF run NOT converged. To continue the calculation regardless,   *
 *    |             please set the keyword IGNORE_CONVERGENCE_FAILURE.         *
 *  O/|                                                                        *
 * /| |                                                                        *
 * / \                                                            qs_scf.F:611 *
 *******************************************************************************


 ===== Routine Calling Stack ===== 

            3 scf_env_do_scf
            2 qs_energies
            1 CP2K

 *******************************************************************************
 *   ___                                                                       *
 *  /   \                                                                      *
 * [ABORT]                                                                     *
 *  \___/     SCF run NOT converged. To continue the calculation regardless,   *
 *    |             please set the keyword IGNORE_CONVERGENCE_FAILURE.         *
 *  O/|                                                                        *
 * /| |                                                                        *
 * / \                                                            qs_scf.F:611 *
 *******************************************************************************


 ===== Routine Calling Stack ===== 

            3 scf_env_do_scf
            2 qs_energies
            1 CP2K

 *******************************************************************************
 *   ___                                                                       *
 *  /   \                                                                      *
 * [ABORT]                                                                     *
 *  \___/     SCF run NOT converged. To continue the calculation regardless,   *
 *    |             please set the keyword IGNORE_CONVERGENCE_FAILURE.         *
 *  O/|                                                                        *
 * /| |                                                                        *
 * / \                                                            qs_scf.F:611 *
 *******************************************************************************


 ===== Routine Calling Stack ===== 

            3 scf_env_do_scf
            2 qs_energies
            1 CP2K

 *******************************************************************************
 *   ___                                                                       *
 *  /   \                                                                      *
 * [ABORT]                                                                     *
 *  \___/     SCF run NOT converged. To continue the calculation regardless,   *
 *    |             please set the keyword IGNORE_CONVERGENCE_FAILURE.         *
 *  O/|                                                                        *
 * /| |                                                                        *
 * / \                                                            qs_scf.F:611 *
 *******************************************************************************


 ===== Routine Calling Stack ===== 

            3 scf_env_do_scf
            2 qs_energies
            1 CP2K

 *******************************************************************************
 *   ___                                                                       *
 *  /   \                                                                      *
 * [ABORT]                                                                     *
 *  \___/     SCF run NOT converged. To continue the calculation regardless,   *
 *    |             please set the keyword IGNORE_CONVERGENCE_FAILURE.         *
 *  O/|                                                                        *
 * /| |                                                                        *
 * / \                                                            qs_scf.F:611 *
 *******************************************************************************


 ===== Routine Calling Stack ===== 

            3 scf_env_do_scf
            2 qs_energies
            1 CP2K

 *******************************************************************************
 *   ___                                                                       *
 *  /   \                                                                      *
 * [ABORT]                                                                     *
 *  \___/     SCF run NOT converged. To continue the calculation regardless,   *
 *    |             please set the keyword IGNORE_CONVERGENCE_FAILURE.         *
 *  O/|                                                                        *
 * /| |                                                                        *
 * / \                                                            qs_scf.F:611 *
 *******************************************************************************


 ===== Routine Calling Stack ===== 

            3 scf_env_do_scf
            2 qs_energies
            1 CP2K

 *******************************************************************************
 *   ___                                                                       *
 *  /   \                                                                      *
 * [ABORT]                                                                     *
 *  \___/     SCF run NOT converged. To continue the calculation regardless,   *
 *    |             please set the keyword IGNORE_CONVERGENCE_FAILURE.         *
 *  O/|                                                                        *
 * /| |                                                                        *
 * / \                                                            qs_scf.F:611 *
 *******************************************************************************


 ===== Routine Calling Stack ===== 

            3 scf_env_do_scf
            2 qs_energies
            1 CP2K

 *******************************************************************************
 *   ___                                                                       *
 *  /   \                                                                      *
 * [ABORT]                                                                     *
 *  \___/     SCF run NOT converged. To continue the calculation regardless,   *
 *    |             please set the keyword IGNORE_CONVERGENCE_FAILURE.         *
 *  O/|                                                                        *
 * /| |                                                                        *
 * / \                                                            qs_scf.F:611 *
 *******************************************************************************


 ===== Routine Calling Stack ===== 

            3 scf_env_do_scf
            2 qs_energies
            1 CP2K

 *******************************************************************************
 *   ___                                                                       *
 *  /   \                                                                      *
 * [ABORT]                                                                     *
 *  \___/     SCF run NOT converged. To continue the calculation regardless,   *
 *    |             please set the keyword IGNORE_CONVERGENCE_FAILURE.         *
 *  O/|                                                                        *
 * /| |                                                                        *
 * / \                                                            qs_scf.F:611 *
 *******************************************************************************


 ===== Routine Calling Stack ===== 

            3 scf_env_do_scf
            2 qs_energies
            1 CP2K
