 DBCSR| CPU Multiplication driver                                           BLAS (U)
 DBCSR| Multrec recursion limit                                              512 (U)
 DBCSR| Multiplication stack size                                           1000 (D)
 DBCSR| Maximum elements for images                                    UNLIMITED (U)
 DBCSR| Multiplicative factor virtual images                                   1 (U)
 DBCSR| Use multiplication densification                                       T (D)
 DBCSR| Multiplication size stacks                                             3 (U)
 DBCSR| Use memory pool for CPU allocation                                     F (U)
 DBCSR| Number of 3D layers                                               SINGLE (U)
 DBCSR| Use MPI memory allocation                                              F (U)
 DBCSR| Use RMA algorithm                                                      F (U)
 DBCSR| Use Communication thread                                               T (U)
 DBCSR| Communication thread load                                             75 (D)
 DBCSR| MPI: My process id                                                     0
 DBCSR| MPI: Number of processes                                              24
 DBCSR| OMP: Current number of threads                                         4
 DBCSR| OMP: Max number of threads                                             4
 DBCSR| Split modifier for TAS multiplication algorithm                  1.0E+00 (U)


  **** **** ******  **  PROGRAM STARTED AT               2025-03-08 02:41:31.063
 ***** ** ***  *** **   PROGRAM STARTED ON                          i02r09c05s11
 **    ****   ******    PROGRAM STARTED BY                               di38fab
 ***** **    ** ** **   PROGRAM PROCESS ID                                843402
  **** **  *******  **  PROGRAM STARTED IN /hppfs/scratch/04/di38fab/05_MOL/W4-1
                                           1+ALK/bn3pi/DZVP

 CP2K| version string:                 CP2K version 2025.1 (Development Version)
 CP2K| source code revision number:                                  git:47877ba
 CP2K| cp2kflags: omp libint fftw3 libxc parallel scalapack max_contr=4         
 CP2K| is freely available from                            https://www.cp2k.org/
 CP2K| Program compiled at                          Thu Feb 20 16:00:34 CET 2025
 CP2K| Program compiled on                                               login04
 CP2K| Program compiled for                                        Supermuc-foss
 CP2K| Data directory path          /hppfs/work/pn36zo/di38fab/newcp2k/cp2k/data
 CP2K| Input file name                                                    GW.inp

 GLOBAL| Force Environment number                                              1
 GLOBAL| Basis set file name            /hppfs/scratch/04/di38fab/04_TMD/BASIS_A
 GLOBAL| Potential file name            /hppfs/work/pn36zo/di38fab/cp2k/data/ALL
 GLOBAL| MM Potential file name                                     MM_POTENTIAL
 GLOBAL| Coordinate file name                                      __STD_INPUT__
 GLOBAL| Method name                                                        CP2K
 GLOBAL| Project name                                                       MoS2
 GLOBAL| Run type                                                         ENERGY
 GLOBAL| FFT library                                                       FFTW3
 GLOBAL| Diagonalization library                                       ScaLAPACK
 GLOBAL| DGEMM library                                                      BLAS
 GLOBAL| Orthonormality check for eigenvectors                          DISABLED
 GLOBAL| Matrix multiplication library                                 ScaLAPACK
 GLOBAL| All-to-all communication in single precision                          F
 GLOBAL| FFTs using library dependent lengths                                  F
 GLOBAL| Grid backend                                                       AUTO
 GLOBAL| Global print level                                               MEDIUM
 GLOBAL| MPI I/O enabled                                                       T
 GLOBAL| Total number of message passing processes                            24
 GLOBAL| Number of threads for this process                                    4
 GLOBAL| This output is from process                                           0
 GLOBAL| OpenMP stack size per thread (OMP_STACKSIZE)                    default
 GLOBAL| CPU model name             Intel(R) Xeon(R) Platinum 8174 CPU @ 3.10GHz

 MEMORY| system memory details [Kb]
 MEMORY|                        rank 0           min           max       average
 MEMORY| MemTotal             98436664      98436660      98436664      98436662
 MEMORY| MemFree              83831784      83831784      83900460      83866122
 MEMORY| Buffers                     0             0             0             0
 MEMORY| Cached                2417460       2394184       2417460       2405822
 MEMORY| Slab                  1253720       1220692       1253720       1237206
 MEMORY| SReclaimable           265528        265528        267976        266752
 MEMORY| MemLikelyFree        86514772      86514772      86562620      86538696


 *** Fundamental physical constants (SI units) ***

 *** Literature: B. J. Mohr and B. N. Taylor,
 ***             CODATA recommended values of the fundamental physical
 ***             constants: 2006, Web Version 5.1
 ***             http://physics.nist.gov/constants

 Speed of light in vacuum [m/s]                             2.99792458000000E+08
 Magnetic constant or permeability of vacuum [N/A**2]       1.25663706143592E-06
 Electric constant or permittivity of vacuum [F/m]          8.85418781762039E-12
 Planck constant (h) [J*s]                                  6.62606896000000E-34
 Planck constant (h-bar) [J*s]                              1.05457162825177E-34
 Elementary charge [C]                                      1.60217648700000E-19
 Electron mass [kg]                                         9.10938215000000E-31
 Electron g factor [ ]                                     -2.00231930436220E+00
 Proton mass [kg]                                           1.67262163700000E-27
 Fine-structure constant                                    7.29735253760000E-03
 Rydberg constant [1/m]                                     1.09737315685270E+07
 Avogadro constant [1/mol]                                  6.02214179000000E+23
 Boltzmann constant [J/K]                                   1.38065040000000E-23
 Atomic mass unit [kg]                                      1.66053878200000E-27
 Bohr radius [m]                                            5.29177208590000E-11

 *** Conversion factors ***

 [u] -> [a.u.]                                              1.82288848426455E+03
 [Angstrom] -> [Bohr] = [a.u.]                              1.88972613288564E+00
 [a.u.] = [Bohr] -> [Angstrom]                              5.29177208590000E-01
 [a.u.] -> [s]                                              2.41888432650478E-17
 [a.u.] -> [fs]                                             2.41888432650478E-02
 [a.u.] -> [J]                                              4.35974393937059E-18
 [a.u.] -> [N]                                              8.23872205491840E-08
 [a.u.] -> [K]                                              3.15774647902944E+05
 [a.u.] -> [kJ/mol]                                         2.62549961709828E+03
 [a.u.] -> [kcal/mol]                                       6.27509468713739E+02
 [a.u.] -> [Pa]                                             2.94210107994716E+13
 [a.u.] -> [bar]                                            2.94210107994716E+08
 [a.u.] -> [atm]                                            2.90362800883016E+08
 [a.u.] -> [eV]                                             2.72113838565563E+01
 [a.u.] -> [Hz]                                             6.57968392072181E+15
 [a.u.] -> [1/cm] (wave numbers)                            2.19474631370540E+05
 [a.u./Bohr**2] -> [1/cm]                                   5.14048714338585E+03
 

 CELL_TOP| Volume [angstrom^3]:                                     27000.000000
 CELL_TOP| Vector a [angstrom    30.000     0.000     0.000   |a| =    30.000000
 CELL_TOP| Vector b [angstrom     0.000    30.000     0.000   |b| =    30.000000
 CELL_TOP| Vector c [angstrom     0.000     0.000    30.000   |c| =    30.000000
 CELL_TOP| Angle (b,c), alpha [degree]:                                90.000000
 CELL_TOP| Angle (a,c), beta  [degree]:                                90.000000
 CELL_TOP| Angle (a,b), gamma [degree]:                                90.000000
 CELL_TOP| Numerically orthorhombic:                                         YES
 CELL_TOP| Periodicity                                                      NONE

 GENERATE|  Preliminary Number of Bonds generated:                             0
 GENERATE|  Achieved consistency in connectivity generation.

 CELL| Volume [angstrom^3]:                                         27000.000000
 CELL| Vector a [angstrom]:      30.000     0.000     0.000   |a| =    30.000000
 CELL| Vector b [angstrom]:       0.000    30.000     0.000   |b| =    30.000000
 CELL| Vector c [angstrom]:       0.000     0.000    30.000   |c| =    30.000000
 CELL| Angle (b,c), alpha [degree]:                                    90.000000
 CELL| Angle (a,c), beta  [degree]:                                    90.000000
 CELL| Angle (a,b), gamma [degree]:                                    90.000000
 CELL| Numerically orthorhombic:                                             YES
 CELL| Periodicity                                                          NONE

 CELL_REF| Volume [angstrom^3]:                                     27000.000000
 CELL_REF| Vector a [angstrom    30.000     0.000     0.000   |a| =    30.000000
 CELL_REF| Vector b [angstrom     0.000    30.000     0.000   |b| =    30.000000
 CELL_REF| Vector c [angstrom     0.000     0.000    30.000   |c| =    30.000000
 CELL_REF| Angle (b,c), alpha [degree]:                                90.000000
 CELL_REF| Angle (a,c), beta  [degree]:                                90.000000
 CELL_REF| Angle (a,b), gamma [degree]:                                90.000000
 CELL_REF| Numerically orthorhombic:                                         YES
 CELL_REF| Periodicity                                                      NONE

 *******************************************************************************
 *******************************************************************************
 **                                                                           **
 **     #####                         ##              ##                      **
 **    ##   ##            ##          ##              ##                      **
 **   ##     ##                       ##            ######                    **
 **   ##     ##  ##   ##  ##   #####  ##  ##   ####   ##    #####    #####    **
 **   ##     ##  ##   ##  ##  ##      ## ##   ##      ##   ##   ##  ##   ##   **
 **   ##  ## ##  ##   ##  ##  ##      ####     ###    ##   ######   ######    **
 **    ##  ###   ##   ##  ##  ##      ## ##      ##   ##   ##       ##        **
 **     #######   #####   ##   #####  ##  ##  ####    ##    #####   ##        **
 **           ##                                                    ##        **
 **                                                                           **
 **                                                ... make the atoms dance   **
 **                                                                           **
 **            Copyright (C) by CP2K developers group (2000-2025)             **
 **                      J. Chem. Phys. 152, 194103 (2020)                    **
 **                                                                           **
 *******************************************************************************

 DFT| Spin restricted Kohn-Sham (RKS) calculation                            RKS
 DFT| Multiplicity                                                             1
 DFT| Number of spin states                                                    1
 DFT| Charge                                                                   0
 DFT| Self-interaction correction (SIC)                                       NO
 DFT| Cutoffs: density                                              1.000000E-10
 DFT|          gradient                                             1.000000E-10
 DFT|          tau                                                  1.000000E-10
 DFT|          cutoff_smoothing_range                               0.000000E+00
 DFT| XC density smoothing                                                  NONE
 DFT| XC derivatives                                                          PW

 FUNCTIONAL| PBE:
 FUNCTIONAL| J.P.Perdew, K.Burke, M.Ernzerhof, Phys. Rev. Letter, vol. 77, n 18,
 FUNCTIONAL|  pp. 3865-3868, (1996)sx=0.750sc=1.000{spin unpolarized}           


 QS| Method:                                                                GAPW
 QS| Density plane wave grid type                        NON-SPHERICAL FULLSPACE
 QS| Number of grid levels:                                                    4
 QS| Density cutoff [a.u.]:                                                250.0
 QS| Multi grid cutoff [a.u.]: 1) grid level                               250.0
 QS|                           2) grid level                                83.3
 QS|                           3) grid level                                27.8
 QS|                           4) grid level                                 9.3
 QS| Grid level progression factor:                                          3.0
 QS| Relative density cutoff [a.u.]:                                        50.0
 QS| Interaction thresholds: eps_pgf_orb:                                1.0E-12
 QS|                         eps_filter_matrix:                          0.0E+00
 QS|                         eps_core_charge:                            1.0E-14
 QS|                         eps_rho_gspace:                             1.0E-12
 QS|                         eps_rho_rspace:                             1.0E-12
 QS|                         eps_gvg_rspace:                             1.0E-06
 QS|                         eps_ppl:                                    1.0E-02
 QS|                         eps_ppnl:                                   1.0E-08
 QS| GAPW|      One center basis from orbital basis primitives
 QS| GAPW|                   eps_fit:                                    1.0E-04
 QS| GAPW|                   eps_iso:                                    1.0E-12
 QS| GAPW|                   eps_svd:                                    1.0E-08
 QS| GAPW|                   eps_cpc:                                    1.0E-12
 QS| GAPW|   atom-r-grid: quadrature:                                     GC_LOG
 QS| GAPW|      atom-s-grid:  max l :                                          6
 QS| GAPW|      max_l_rho0 :                                                   2


 ATOMIC KIND INFORMATION

  1. Atomic kind: B                                     Number of atoms:       1

     Orbital Basis Set                                        aug-DZVP-MOLOPT-ae

       Number of orbital shell sets:                                           2
       Number of orbital shells:                                              10
       Number of primitive Cartesian functions:                               12
       Number of Cartesian basis functions:                                   35
       Number of spherical basis functions:                                   30
       Norm type:                                                              2

       Normalised Cartesian orbitals:

                        Set   Shell   Orbital            Exponent    Coefficient

                          1       1    2s                0.082134       0.085473
                                                         0.140000       0.049675
                                                         0.279625      -0.030750
                                                         0.881274       0.022030
                                                         4.510873       0.000000

                          1       2    3px               0.082134      -0.004879
                                                         0.140000       0.000000
                                                         0.279625      -0.151722
                                                         0.881274      -0.583957
                                                         4.510873      -1.036243
                          1       2    3py               0.082134      -0.004879
                                                         0.140000       0.000000
                                                         0.279625      -0.151722
                                                         0.881274      -0.583957
                                                         4.510873      -1.036243
                          1       2    3pz               0.082134      -0.004879
                                                         0.140000       0.000000
                                                         0.279625      -0.151722
                                                         0.881274      -0.583957
                                                         4.510873      -1.036243

                          1       3    4px               0.082134       0.052233
                                                         0.140000       0.000000
                                                         0.279625       0.094300
                                                         0.881274      -0.581323
                                                         4.510873      -0.510604
                          1       3    4py               0.082134       0.052233
                                                         0.140000       0.000000
                                                         0.279625       0.094300
                                                         0.881274      -0.581323
                                                         4.510873      -0.510604
                          1       3    4pz               0.082134       0.052233
                                                         0.140000       0.000000
                                                         0.279625       0.094300
                                                         0.881274      -0.581323
                                                         4.510873      -0.510604

                          1       4    5px               0.082134       0.024659
                                                         0.140000       0.076570
                                                         0.279625      -0.053289
                                                         0.881274       0.410720
                                                         4.510873       0.000000
                          1       4    5py               0.082134       0.024659
                                                         0.140000       0.076570
                                                         0.279625      -0.053289
                                                         0.881274       0.410720
                                                         4.510873       0.000000
                          1       4    5pz               0.082134       0.024659
                                                         0.140000       0.076570
                                                         0.279625      -0.053289
                                                         0.881274       0.410720
                                                         4.510873       0.000000

                          1       5    4dx2              0.082134       0.000404
                                                         0.140000       0.000000
                                                         0.279625       0.111576
                                                         0.881274       0.641739
                                                         4.510873      -0.272354
                          1       5    4dxy              0.082134       0.000700
                                                         0.140000       0.000000
                                                         0.279625       0.193255
                                                         0.881274       1.111524
                                                         4.510873      -0.471731
                          1       5    4dxz              0.082134       0.000700
                                                         0.140000       0.000000
                                                         0.279625       0.193255
                                                         0.881274       1.111524
                                                         4.510873      -0.471731
                          1       5    4dy2              0.082134       0.000404
                                                         0.140000       0.000000
                                                         0.279625       0.111576
                                                         0.881274       0.641739
                                                         4.510873      -0.272354
                          1       5    4dyz              0.082134       0.000700
                                                         0.140000       0.000000
                                                         0.279625       0.193255
                                                         0.881274       1.111524
                                                         4.510873      -0.471731
                          1       5    4dz2              0.082134       0.000404
                                                         0.140000       0.000000
                                                         0.279625       0.111576
                                                         0.881274       0.641739
                                                         4.510873      -0.272354

                          1       6    5dx2              0.082134       0.036596
                                                         0.140000      -0.054919
                                                         0.279625      -0.008802
                                                         0.881274      -0.232953
                                                         4.510873       0.000000
                          1       6    5dxy              0.082134       0.063387
                                                         0.140000      -0.095122
                                                         0.279625      -0.015246
                                                         0.881274      -0.403486
                                                         4.510873       0.000000
                          1       6    5dxz              0.082134       0.063387
                                                         0.140000      -0.095122
                                                         0.279625      -0.015246
                                                         0.881274      -0.403486
                                                         4.510873       0.000000
                          1       6    5dy2              0.082134       0.036596
                                                         0.140000      -0.054919
                                                         0.279625      -0.008802
                                                         0.881274      -0.232953
                                                         4.510873       0.000000
                          1       6    5dyz              0.082134       0.063387
                                                         0.140000      -0.095122
                                                         0.279625      -0.015246
                                                         0.881274      -0.403486
                                                         4.510873       0.000000
                          1       6    5dz2              0.082134       0.036596
                                                         0.140000      -0.054919
                                                         0.279625      -0.008802
                                                         0.881274      -0.232953
                                                         4.510873       0.000000

                          1       7    5fx3              0.082134      -0.000468
                                                         0.140000       0.012301
                                                         0.279625       0.033988
                                                         0.881274       0.068820
                                                         4.510873       0.000000
                          1       7    5fx2y             0.082134      -0.001048
                                                         0.140000       0.027506
                                                         0.279625       0.075998
                                                         0.881274       0.153886
                                                         4.510873       0.000000
                          1       7    5fx2z             0.082134      -0.001048
                                                         0.140000       0.027506
                                                         0.279625       0.075998
                                                         0.881274       0.153886
                                                         4.510873       0.000000
                          1       7    5fxy2             0.082134      -0.001048
                                                         0.140000       0.027506
                                                         0.279625       0.075998
                                                         0.881274       0.153886
                                                         4.510873       0.000000
                          1       7    5fxyz             0.082134      -0.001814
                                                         0.140000       0.047643
                                                         0.279625       0.131633
                                                         0.881274       0.266539
                                                         4.510873       0.000000
                          1       7    5fxz2             0.082134      -0.001048
                                                         0.140000       0.027506
                                                         0.279625       0.075998
                                                         0.881274       0.153886
                                                         4.510873       0.000000
                          1       7    5fy3              0.082134      -0.000468
                                                         0.140000       0.012301
                                                         0.279625       0.033988
                                                         0.881274       0.068820
                                                         4.510873       0.000000
                          1       7    5fy2z             0.082134      -0.001048
                                                         0.140000       0.027506
                                                         0.279625       0.075998
                                                         0.881274       0.153886
                                                         4.510873       0.000000
                          1       7    5fyz2             0.082134      -0.001048
                                                         0.140000       0.027506
                                                         0.279625       0.075998
                                                         0.881274       0.153886
                                                         4.510873       0.000000
                          1       7    5fz3              0.082134      -0.000468
                                                         0.140000       0.012301
                                                         0.279625       0.033988
                                                         0.881274       0.068820
                                                         4.510873       0.000000

                          2       1    1s              839.324562      -0.573042
                                                       126.174643      -1.097170
                                                        28.339532      -1.625259
                                                         7.329111      -1.470436
                                                         2.208031      -0.468381
                                                         0.410209      -0.026981
                                                         0.151694      -0.023850

                          2       2    2s              839.324562       0.050684
                                                       126.174643      -0.115654
                                                        28.339532      -0.168560
                                                         7.329111      -0.289389
                                                         2.208031      -0.246292
                                                         0.410209       0.238157
                                                         0.151694       0.084355

                          2       3    3s              839.324562      -2.590681
                                                       126.174643       0.127370
                                                        28.339532      -1.260776
                                                         7.329111      -0.567183
                                                         2.208031      -0.073452
                                                         0.410209      -0.458063
                                                         0.151694       0.280188

     RI Auxiliary Basis Set             RI_aug-DZVP-MOLOPT-ae_N_RI_115_s_p_d_f_g

       Number of orbital shell sets:                                          25
       Number of orbital shells:                                              25
       Number of primitive Cartesian functions:                               25
       Number of Cartesian basis functions:                                  166
       Number of spherical basis functions:                                  115
       Norm type:                                                              2

       Normalised Cartesian orbitals:

                        Set   Shell   Orbital            Exponent    Coefficient

                          1       1   13dx2              0.170623       0.074555
                          1       1   13dxy              0.170623       0.129133
                          1       1   13dxz              0.170623       0.129133
                          1       1   13dy2              0.170623       0.074555
                          1       1   13dyz              0.170623       0.129133
                          1       1   13dz2              0.170623       0.074555

                          2       1    1s                0.173422       0.191531

                          3       1    8px               0.220288       0.215119
                          3       1    8py               0.220288       0.215119
                          3       1    8pz               0.220288       0.215119

                          4       1   18fx3              0.238515       0.058528
                          4       1   18fx2y             0.238515       0.130873
                          4       1   18fx2z             0.238515       0.130873
                          4       1   18fxy2             0.238515       0.130873
                          4       1   18fxyz             0.238515       0.226679
                          4       1   18fxz2             0.238515       0.130873
                          4       1   18fy3              0.238515       0.058528
                          4       1   18fy2z             0.238515       0.130873
                          4       1   18fyz2             0.238515       0.130873
                          4       1   18fz3              0.238515       0.058528

                          5       1    2s                0.320895       0.303866

                          6       1   14dx2              0.355916       0.269940
                          6       1   14dxy              0.355916       0.467551
                          6       1   14dxz              0.355916       0.467551
                          6       1   14dy2              0.355916       0.269940
                          6       1   14dyz              0.355916       0.467551
                          6       1   14dz2              0.355916       0.269940

                          7       1   19fx3              0.387052       0.173955
                          7       1   19fx2y             0.387052       0.388974
                          7       1   19fx2z             0.387052       0.388974
                          7       1   19fxy2             0.387052       0.388974
                          7       1   19fxyz             0.387052       0.673723
                          7       1   19fxz2             0.387052       0.388974
                          7       1   19fy3              0.387052       0.173955
                          7       1   19fy2z             0.387052       0.388974
                          7       1   19fyz2             0.387052       0.388974
                          7       1   19fz3              0.387052       0.173955

                          8       1    9px               0.494109       0.590499
                          8       1    9py               0.494109       0.590499
                          8       1    9pz               0.494109       0.590499

                          9       1   23gx4              0.603947       0.278088
                          9       1   23gx3y             0.603947       0.735751
                          9       1   23gx3z             0.603947       0.735751
                          9       1   23gx2y2            0.603947       0.949851
                          9       1   23gx2yz            0.603947       1.645190
                          9       1   23gx2z2            0.603947       0.949851
                          9       1   23gxy3             0.603947       0.735751
                          9       1   23gxy2z            0.603947       1.645190
                          9       1   23gxyz2            0.603947       1.645190
                          9       1   23gxz3             0.603947       0.735751
                          9       1   23gy4              0.603947       0.278088
                          9       1   23gy3z             0.603947       0.735751
                          9       1   23gy2z2            0.603947       0.949851
                          9       1   23gyz3             0.603947       0.735751
                          9       1   23gz4              0.603947       0.278088

                         10       1   20fx3              0.627644       0.516190
                         10       1   20fx2y             0.627644       1.154237
                         10       1   20fx2z             0.627644       1.154237
                         10       1   20fxy2             0.627644       1.154237
                         10       1   20fxyz             0.627644       1.999197
                         10       1   20fxz2             0.627644       1.154237
                         10       1   20fy3              0.627644       0.516190
                         10       1   20fy2z             0.627644       1.154237
                         10       1   20fyz2             0.627644       1.154237
                         10       1   20fz3              0.627644       0.516190

                         11       1    3s                0.744008       0.570943

                         12       1   15dx2              0.773675       1.050477
                         12       1   15dxy              0.773675       1.819479
                         12       1   15dxz              0.773675       1.819479
                         12       1   15dy2              0.773675       1.050477
                         12       1   15dyz              0.773675       1.819479
                         12       1   15dz2              0.773675       1.050477

                         13       1   21fx3              1.013690       1.517893
                         13       1   21fx2y             1.013690       3.394112
                         13       1   21fx2z             1.013690       3.394112
                         13       1   21fxy2             1.013690       3.394112
                         13       1   21fxyz             1.013690       5.878775
                         13       1   21fxz2             1.013690       3.394112
                         13       1   21fy3              1.013690       1.517893
                         13       1   21fy2z             1.013690       3.394112
                         13       1   21fyz2             1.013690       3.394112
                         13       1   21fz3              1.013690       1.517893

                         14       1   24hx5              1.038970       0.840048
                         14       1   24hx4y             1.038970       2.520145
                         14       1   24hx4z             1.038970       2.520145
                         14       1   24hx3y2            1.038970       3.849585
                         14       1   24hx3yz            1.038970       6.667677
                         14       1   24hx3z2            1.038970       3.849585
                         14       1   24hx2y3            1.038970       3.849585
                         14       1   24hx2y2z           1.038970       8.607935
                         14       1   24hx2yz2           1.038970       8.607935
                         14       1   24hx2z3            1.038970       3.849585
                         14       1   24hxy4             1.038970       2.520145
                         14       1   24hxy3z            1.038970       6.667677
                         14       1   24hxy2z2           1.038970       8.607935
                         14       1   24hxyz3            1.038970       6.667677
                         14       1   24hxz4             1.038970       2.520145
                         14       1   24hy5              1.038970       0.840048
                         14       1   24hy4z             1.038970       2.520145
                         14       1   24hy3z2            1.038970       3.849585
                         14       1   24hy2z3            1.038970       3.849585
                         14       1   24hyz4             1.038970       2.520145
                         14       1   24hz5              1.038970       0.840048

                         15       1   25ix6              1.128033       0.702885
                         15       1   25ix5y             1.128033       2.331206
                         15       1   25ix5z             1.128033       2.331206
                         15       1   25ix4y2            1.128033       4.037767
                         15       1   25ix4yz            1.128033       6.993617
                         15       1   25ix4z2            1.128033       4.037767
                         15       1   25ix3y3            1.128033       4.777550
                         15       1   25ix3y2z           1.128033      10.682927
                         15       1   25ix3yz2           1.128033      10.682927
                         15       1   25ix3z3            1.128033       4.777550
                         15       1   25ix2y4            1.128033       4.037767
                         15       1   25ix2y3z           1.128033      10.682927
                         15       1   25ix2y2z2          1.128033      13.791599
                         15       1   25ix2yz3           1.128033      10.682927
                         15       1   25ix2z4            1.128033       4.037767
                         15       1   25ixy5             1.128033       2.331206
                         15       1   25ixy4z            1.128033       6.993617
                         15       1   25ixy3z2           1.128033      10.682927
                         15       1   25ixy2z3           1.128033      10.682927
                         15       1   25ixyz4            1.128033       6.993617
                         15       1   25ixz5             1.128033       2.331206
                         15       1   25iy6              1.128033       0.702885
                         15       1   25iy5z             1.128033       2.331206
                         15       1   25iy4z2            1.128033       4.037767
                         15       1   25iy3z3            1.128033       4.777550
                         15       1   25iy2z4            1.128033       4.037767
                         15       1   25iyz5             1.128033       2.331206
                         15       1   25iz6              1.128033       0.702885

                         16       1   10px               1.439023       2.246596
                         16       1   10py               1.439023       2.246596
                         16       1   10pz               1.439023       2.246596

                         17       1   22fx3              1.636060       4.456592
                         17       1   22fx2y             1.636060       9.965243
                         17       1   22fx2z             1.636060       9.965243
                         17       1   22fxy2             1.636060       9.965243
                         17       1   22fxyz             1.636060      17.260306
                         17       1   22fxz2             1.636060       9.965243
                         17       1   22fy3              1.636060       4.456592
                         17       1   22fy2z             1.636060       9.965243
                         17       1   22fyz2             1.636060       9.965243
                         17       1   22fz3              1.636060       4.456592

                         18       1   16dx2              1.666817       4.024511
                         18       1   16dxy              1.666817       6.970658
                         18       1   16dxz              1.666817       6.970658
                         18       1   16dy2              1.666817       4.024511
                         18       1   16dyz              1.666817       6.970658
                         18       1   16dz2              1.666817       4.024511

                         19       1    4s                2.067730       1.228939

                         20       1   17dx2              3.600964      15.493241
                         20       1   17dxy              3.600964      26.835081
                         20       1   17dxz              3.600964      26.835081
                         20       1   17dy2              3.600964      15.493241
                         20       1   17dyz              3.600964      26.835081
                         20       1   17dz2              3.600964      15.493241

                         21       1   11px               4.005485       8.077164
                         21       1   11py               4.005485       8.077164
                         21       1   11pz               4.005485       8.077164

                         22       1    5s                5.971525       2.722539

                         23       1   12px              12.202549      32.508976
                         23       1   12py              12.202549      32.508976
                         23       1   12pz              12.202549      32.508976

                         24       1    6s               16.908352       5.942731

                         25       1    7s               47.451777      12.885446

       Atomic covalent radius [Angstrom]:                                  0.820

       Atomic van der Waals radius [Angstrom]:                             1.920

     The atoms of this atomic kind are PAW atoms (GAPW):
       Hard Gaussian function radius:                                      1.512
       Rho0 radius:                                                        1.512
       Maximum GTO radius used for PAW projector construction:            24.566

     GAPW Soft Basis Set                                 aug-DZVP-MOLOPT-ae_soft

       Number of orbital shell sets:                                           2
       Number of orbital shells:                                              10
       Number of primitive Cartesian functions:                                8
       Number of Cartesian basis functions:                                   35
       Number of spherical basis functions:                                   30
       Norm type:                                                              2

       Normalised Cartesian orbitals:

                        Set   Shell   Orbital            Exponent    Coefficient

                          1       1    2s                0.082134       0.085473
                                                         0.140000       0.049675
                                                         0.279625      -0.030750
                                                         0.881274       0.022030
                                                         4.510873       0.000000

                          1       2    3px               0.082134      -0.004879
                                                         0.140000       0.000000
                                                         0.279625      -0.151722
                                                         0.881274      -0.583957
                                                         4.510873       0.000000
                          1       2    3py               0.082134      -0.004879
                                                         0.140000       0.000000
                                                         0.279625      -0.151722
                                                         0.881274      -0.583957
                                                         4.510873       0.000000
                          1       2    3pz               0.082134      -0.004879
                                                         0.140000       0.000000
                                                         0.279625      -0.151722
                                                         0.881274      -0.583957
                                                         4.510873       0.000000

                          1       3    4px               0.082134       0.052233
                                                         0.140000       0.000000
                                                         0.279625       0.094300
                                                         0.881274      -0.581323
                                                         4.510873       0.000000
                          1       3    4py               0.082134       0.052233
                                                         0.140000       0.000000
                                                         0.279625       0.094300
                                                         0.881274      -0.581323
                                                         4.510873       0.000000
                          1       3    4pz               0.082134       0.052233
                                                         0.140000       0.000000
                                                         0.279625       0.094300
                                                         0.881274      -0.581323
                                                         4.510873       0.000000

                          1       4    5px               0.082134       0.024659
                                                         0.140000       0.076570
                                                         0.279625      -0.053289
                                                         0.881274       0.410720
                                                         4.510873       0.000000
                          1       4    5py               0.082134       0.024659
                                                         0.140000       0.076570
                                                         0.279625      -0.053289
                                                         0.881274       0.410720
                                                         4.510873       0.000000
                          1       4    5pz               0.082134       0.024659
                                                         0.140000       0.076570
                                                         0.279625      -0.053289
                                                         0.881274       0.410720
                                                         4.510873       0.000000

                          1       5    4dx2              0.082134       0.000404
                                                         0.140000       0.000000
                                                         0.279625       0.111576
                                                         0.881274       0.641739
                                                         4.510873       0.000000
                          1       5    4dxy              0.082134       0.000700
                                                         0.140000       0.000000
                                                         0.279625       0.193255
                                                         0.881274       1.111524
                                                         4.510873       0.000000
                          1       5    4dxz              0.082134       0.000700
                                                         0.140000       0.000000
                                                         0.279625       0.193255
                                                         0.881274       1.111524
                                                         4.510873       0.000000
                          1       5    4dy2              0.082134       0.000404
                                                         0.140000       0.000000
                                                         0.279625       0.111576
                                                         0.881274       0.641739
                                                         4.510873       0.000000
                          1       5    4dyz              0.082134       0.000700
                                                         0.140000       0.000000
                                                         0.279625       0.193255
                                                         0.881274       1.111524
                                                         4.510873       0.000000
                          1       5    4dz2              0.082134       0.000404
                                                         0.140000       0.000000
                                                         0.279625       0.111576
                                                         0.881274       0.641739
                                                         4.510873       0.000000

                          1       6    5dx2              0.082134       0.036596
                                                         0.140000      -0.054919
                                                         0.279625      -0.008802
                                                         0.881274      -0.232953
                                                         4.510873       0.000000
                          1       6    5dxy              0.082134       0.063387
                                                         0.140000      -0.095122
                                                         0.279625      -0.015246
                                                         0.881274      -0.403486
                                                         4.510873       0.000000
                          1       6    5dxz              0.082134       0.063387
                                                         0.140000      -0.095122
                                                         0.279625      -0.015246
                                                         0.881274      -0.403486
                                                         4.510873       0.000000
                          1       6    5dy2              0.082134       0.036596
                                                         0.140000      -0.054919
                                                         0.279625      -0.008802
                                                         0.881274      -0.232953
                                                         4.510873       0.000000
                          1       6    5dyz              0.082134       0.063387
                                                         0.140000      -0.095122
                                                         0.279625      -0.015246
                                                         0.881274      -0.403486
                                                         4.510873       0.000000
                          1       6    5dz2              0.082134       0.036596
                                                         0.140000      -0.054919
                                                         0.279625      -0.008802
                                                         0.881274      -0.232953
                                                         4.510873       0.000000

                          1       7    5fx3              0.082134      -0.000468
                                                         0.140000       0.012301
                                                         0.279625       0.033988
                                                         0.881274       0.068820
                                                         4.510873       0.000000
                          1       7    5fx2y             0.082134      -0.001048
                                                         0.140000       0.027506
                                                         0.279625       0.075998
                                                         0.881274       0.153886
                                                         4.510873       0.000000
                          1       7    5fx2z             0.082134      -0.001048
                                                         0.140000       0.027506
                                                         0.279625       0.075998
                                                         0.881274       0.153886
                                                         4.510873       0.000000
                          1       7    5fxy2             0.082134      -0.001048
                                                         0.140000       0.027506
                                                         0.279625       0.075998
                                                         0.881274       0.153886
                                                         4.510873       0.000000
                          1       7    5fxyz             0.082134      -0.001814
                                                         0.140000       0.047643
                                                         0.279625       0.131633
                                                         0.881274       0.266539
                                                         4.510873       0.000000
                          1       7    5fxz2             0.082134      -0.001048
                                                         0.140000       0.027506
                                                         0.279625       0.075998
                                                         0.881274       0.153886
                                                         4.510873       0.000000
                          1       7    5fy3              0.082134      -0.000468
                                                         0.140000       0.012301
                                                         0.279625       0.033988
                                                         0.881274       0.068820
                                                         4.510873       0.000000
                          1       7    5fy2z             0.082134      -0.001048
                                                         0.140000       0.027506
                                                         0.279625       0.075998
                                                         0.881274       0.153886
                                                         4.510873       0.000000
                          1       7    5fyz2             0.082134      -0.001048
                                                         0.140000       0.027506
                                                         0.279625       0.075998
                                                         0.881274       0.153886
                                                         4.510873       0.000000
                          1       7    5fz3              0.082134      -0.000468
                                                         0.140000       0.012301
                                                         0.279625       0.033988
                                                         0.881274       0.068820
                                                         4.510873       0.000000

                          2       1    1s                2.208031      -0.468381
                                                         0.410209      -0.026981
                                                         0.151694      -0.023850

                          2       2    2s                2.208031      -0.246292
                                                         0.410209       0.238157
                                                         0.151694       0.084355

                          2       3    3s                2.208031      -0.073452
                                                         0.410209      -0.458063
                                                         0.151694       0.280188

     AE Potential information for                                            ALL

       Description:                                       All-electron potential
                                          Krack, Parrinello, PCCP 2, 2105 (2000)

       Gaussian exponent of the core charge distribution:               2.655410
       Electronic configuration (s p d ...):                           4   1   0

  2. Atomic kind: N                                     Number of atoms:       1

     Orbital Basis Set                                        aug-DZVP-MOLOPT-ae

       Number of orbital shell sets:                                           2
       Number of orbital shells:                                              10
       Number of primitive Cartesian functions:                               12
       Number of Cartesian basis functions:                                   35
       Number of spherical basis functions:                                   30
       Norm type:                                                              2

       Normalised Cartesian orbitals:

                        Set   Shell   Orbital            Exponent    Coefficient

                          1       1    2s                0.060000      -0.096639
                                                         0.166384       0.037538
                                                         0.634073      -0.055669
                                                         2.325354       0.000000
                                                        12.268174       0.000000

                          1       2    3px               0.060000       0.000000
                                                         0.166384      -0.031930
                                                         0.634073      -0.492962
                                                         2.325354      -1.380142
                                                        12.268174      -2.349358
                          1       2    3py               0.060000       0.000000
                                                         0.166384      -0.031930
                                                         0.634073      -0.492962
                                                         2.325354      -1.380142
                                                        12.268174      -2.349358
                          1       2    3pz               0.060000       0.000000
                                                         0.166384      -0.031930
                                                         0.634073      -0.492962
                                                         2.325354      -1.380142
                                                        12.268174      -2.349358

                          1       3    4px               0.060000       0.000000
                                                         0.166384       0.169694
                                                         0.634073      -0.220766
                                                         2.325354      -0.809234
                                                        12.268174      -0.998521
                          1       3    4py               0.060000       0.000000
                                                         0.166384       0.169694
                                                         0.634073      -0.220766
                                                         2.325354      -0.809234
                                                        12.268174      -0.998521
                          1       3    4pz               0.060000       0.000000
                                                         0.166384       0.169694
                                                         0.634073      -0.220766
                                                         2.325354      -0.809234
                                                        12.268174      -0.998521

                          1       4    5px               0.060000       0.028594
                                                         0.166384       0.063224
                                                         0.634073      -0.046183
                                                         2.325354       0.000000
                                                        12.268174       0.000000
                          1       4    5py               0.060000       0.028594
                                                         0.166384       0.063224
                                                         0.634073      -0.046183
                                                         2.325354       0.000000
                                                        12.268174       0.000000
                          1       4    5pz               0.060000       0.028594
                                                         0.166384       0.063224
                                                         0.634073      -0.046183
                                                         2.325354       0.000000
                                                        12.268174       0.000000

                          1       5    4dx2              0.060000       0.000000
                                                         0.166384       0.019402
                                                         0.634073       0.555487
                                                         2.325354       1.255926
                                                        12.268174      -0.426175
                          1       5    4dxy              0.060000       0.000000
                                                         0.166384       0.033606
                                                         0.634073       0.962132
                                                         2.325354       2.175327
                                                        12.268174      -0.738157
                          1       5    4dxz              0.060000       0.000000
                                                         0.166384       0.033606
                                                         0.634073       0.962132
                                                         2.325354       2.175327
                                                        12.268174      -0.738157
                          1       5    4dy2              0.060000       0.000000
                                                         0.166384       0.019402
                                                         0.634073       0.555487
                                                         2.325354       1.255926
                                                        12.268174      -0.426175
                          1       5    4dyz              0.060000       0.000000
                                                         0.166384       0.033606
                                                         0.634073       0.962132
                                                         2.325354       2.175327
                                                        12.268174      -0.738157
                          1       5    4dz2              0.060000       0.000000
                                                         0.166384       0.019402
                                                         0.634073       0.555487
                                                         2.325354       1.255926
                                                        12.268174      -0.426175

                          1       6    5dx2              0.060000      -0.008089
                                                         0.166384      -0.027907
                                                         0.634073      -0.057221
                                                         2.325354       0.000000
                                                        12.268174       0.000000
                          1       6    5dxy              0.060000      -0.014011
                                                         0.166384      -0.048336
                                                         0.634073      -0.099109
                                                         2.325354       0.000000
                                                        12.268174       0.000000
                          1       6    5dxz              0.060000      -0.014011
                                                         0.166384      -0.048336
                                                         0.634073      -0.099109
                                                         2.325354       0.000000
                                                        12.268174       0.000000
                          1       6    5dy2              0.060000      -0.008089
                                                         0.166384      -0.027907
                                                         0.634073      -0.057221
                                                         2.325354       0.000000
                                                        12.268174       0.000000
                          1       6    5dyz              0.060000      -0.014011
                                                         0.166384      -0.048336
                                                         0.634073      -0.099109
                                                         2.325354       0.000000
                                                        12.268174       0.000000
                          1       6    5dz2              0.060000      -0.008089
                                                         0.166384      -0.027907
                                                         0.634073      -0.057221
                                                         2.325354       0.000000
                                                        12.268174       0.000000

                          1       7    5fx3              0.060000       0.000067
                                                         0.166384       0.012645
                                                         0.634073       0.328269
                                                         2.325354       1.687172
                                                        12.268174       0.000000
                          1       7    5fx2y             0.060000       0.000150
                                                         0.166384       0.028275
                                                         0.634073       0.734031
                                                         2.325354       3.772631
                                                        12.268174       0.000000
                          1       7    5fx2z             0.060000       0.000150
                                                         0.166384       0.028275
                                                         0.634073       0.734031
                                                         2.325354       3.772631
                                                        12.268174       0.000000
                          1       7    5fxy2             0.060000       0.000150
                                                         0.166384       0.028275
                                                         0.634073       0.734031
                                                         2.325354       3.772631
                                                        12.268174       0.000000
                          1       7    5fxyz             0.060000       0.000260
                                                         0.166384       0.048973
                                                         0.634073       1.271379
                                                         2.325354       6.534389
                                                        12.268174       0.000000
                          1       7    5fxz2             0.060000       0.000150
                                                         0.166384       0.028275
                                                         0.634073       0.734031
                                                         2.325354       3.772631
                                                        12.268174       0.000000
                          1       7    5fy3              0.060000       0.000067
                                                         0.166384       0.012645
                                                         0.634073       0.328269
                                                         2.325354       1.687172
                                                        12.268174       0.000000
                          1       7    5fy2z             0.060000       0.000150
                                                         0.166384       0.028275
                                                         0.634073       0.734031
                                                         2.325354       3.772631
                                                        12.268174       0.000000
                          1       7    5fyz2             0.060000       0.000150
                                                         0.166384       0.028275
                                                         0.634073       0.734031
                                                         2.325354       3.772631
                                                        12.268174       0.000000
                          1       7    5fz3              0.060000       0.000067
                                                         0.166384       0.012645
                                                         0.634073       0.328269
                                                         2.325354       1.687172
                                                        12.268174       0.000000

                          2       1    1s                0.191012      -0.002582
                                                         0.666629       0.012902
                                                         4.403487      -0.858326
                                                        14.651380      -2.749170
                                                        57.692026      -2.958222
                                                       257.997554      -1.897300
                                                      1713.054433      -1.166486

                          2       2    2s                0.191012       0.079194
                                                         0.666629       0.351708
                                                         4.403487       0.009155
                                                        14.651380       0.000424
                                                        57.692026       0.772862
                                                       257.997554      -0.458166
                                                      1713.054433       0.520658

                          2       3    3s                0.191012       0.300064
                                                         0.666629      -0.436823
                                                         4.403487      -0.072962
                                                        14.651380      -0.095292
                                                        57.692026      -1.262420
                                                       257.997554       0.741400
                                                      1713.054433      -0.270364

     RI Auxiliary Basis Set             RI_aug-DZVP-MOLOPT-ae_N_RI_089_s_p_d_f_g

       Number of orbital shell sets:                                          23
       Number of orbital shells:                                              23
       Number of primitive Cartesian functions:                               23
       Number of Cartesian basis functions:                                  115
       Number of spherical basis functions:                                   89
       Norm type:                                                              2

       Normalised Cartesian orbitals:

                        Set   Shell   Orbital            Exponent    Coefficient

                          1       1    8px               0.212834       0.206058
                          1       1    8py               0.212834       0.206058
                          1       1    8pz               0.212834       0.206058

                          2       1    1s                0.308364       0.294923

                          3       1   14dx2              0.364281       0.281141
                          3       1   14dxy              0.364281       0.486951
                          3       1   14dxz              0.364281       0.486951
                          3       1   14dy2              0.364281       0.281141
                          3       1   14dyz              0.364281       0.486951
                          3       1   14dz2              0.364281       0.281141

                          4       1   19fx3              0.368644       0.155891
                          4       1   19fx2y             0.368644       0.348582
                          4       1   19fx2z             0.368644       0.348582
                          4       1   19fxy2             0.368644       0.348582
                          4       1   19fxyz             0.368644       0.603762
                          4       1   19fxz2             0.368644       0.348582
                          4       1   19fy3              0.368644       0.155891
                          4       1   19fy2z             0.368644       0.348582
                          4       1   19fyz2             0.368644       0.348582
                          4       1   19fz3              0.368644       0.155891

                          5       1    2s                0.390066       0.351774

                          6       1   15dx2              0.551710       0.581304
                          6       1   15dxy              0.551710       1.006848
                          6       1   15dxz              0.551710       1.006848
                          6       1   15dy2              0.551710       0.581304
                          6       1   15dyz              0.551710       1.006848
                          6       1   15dz2              0.551710       0.581304

                          7       1    9px               0.581839       0.724341
                          7       1    9py               0.581839       0.724341
                          7       1    9pz               0.581839       0.724341

                          8       1   22gx4              0.707666       0.429996
                          8       1   22gx3y             0.707666       1.137662
                          8       1   22gx3z             0.707666       1.137662
                          8       1   22gx2y2            0.707666       1.468715
                          8       1   22gx2yz            0.707666       2.543889
                          8       1   22gx2z2            0.707666       1.468715
                          8       1   22gxy3             0.707666       1.137662
                          8       1   22gxy2z            0.707666       2.543889
                          8       1   22gxyz2            0.707666       2.543889
                          8       1   22gxz3             0.707666       1.137662
                          8       1   22gy4              0.707666       0.429996
                          8       1   22gy3z             0.707666       1.137662
                          8       1   22gy2z2            0.707666       1.468715
                          8       1   22gyz3             0.707666       1.137662
                          8       1   22gz4              0.707666       0.429996

                          9       1   20fx3              0.985610       1.424921
[...]
   418 Broy./Diag. 0.10E+00    5.6     0.08284299       -79.6800887716  1.78E-01
   419 Broy./Diag. 0.10E+00    5.5     0.04841235       -79.5258544783  1.54E-01
   420 Broy./Diag. 0.10E+00    5.6     0.03286952       -79.5720223725 -4.62E-02
   421 Broy./Diag. 0.10E+00    5.5     0.05247865       -79.6701871107 -9.82E-02
   422 Broy./Diag. 0.10E+00    5.5     0.10529619       -79.7915817022 -1.21E-01
   423 Broy./Diag. 0.10E+00    5.5     0.11223346       -79.8210111640 -2.94E-02
   424 Broy./Diag. 0.10E+00    5.4     0.20711842       -80.0882741569 -2.67E-01
   425 Broy./Diag. 0.10E+00    5.5     0.11112976       -80.2776570633 -1.89E-01
   426 Broy./Diag. 0.10E+00    5.5     0.16243086       -80.0985184062  1.79E-01
   427 Broy./Diag. 0.10E+00    5.4     0.06209522       -79.4574531055  6.41E-01
   428 Broy./Diag. 0.10E+00    5.6     0.07575548       -79.3244782072  1.33E-01
   429 Broy./Diag. 0.10E+00    5.6     0.06187670       -79.1917187715  1.33E-01
   430 Broy./Diag. 0.10E+00    5.6     0.02382595       -79.1329725000  5.87E-02
   431 Broy./Diag. 0.10E+00    5.6     0.04347098       -79.1541357251 -2.12E-02
   432 Broy./Diag. 0.10E+00    5.7     0.05422422       -79.2590841390 -1.05E-01
   433 Broy./Diag. 0.10E+00    5.6     0.01579378       -79.3610254972 -1.02E-01
   434 Broy./Diag. 0.10E+00    5.6     0.11290720       -79.3009559080  6.01E-02
   435 Broy./Diag. 0.10E+00    5.5     0.06227374       -79.0010311349  3.00E-01
   436 Broy./Diag. 0.10E+00    5.5     0.03674738       -78.9558886521  4.51E-02
   437 Broy./Diag. 0.10E+00    5.4     0.03625825       -78.8898170418  6.61E-02
   438 Broy./Diag. 0.10E+00    5.4     0.02069838       -78.8109937147  7.88E-02
   439 Broy./Diag. 0.10E+00    5.4     0.01869879       -78.8265157036 -1.55E-02
   440 Broy./Diag. 0.10E+00    5.5     0.05047295       -78.8719149633 -4.54E-02
   441 Broy./Diag. 0.10E+00    5.5     0.03447284       -79.0403351995 -1.68E-01
   442 Broy./Diag. 0.10E+00    5.5     0.03061769       -79.1057337886 -6.54E-02
   443 Broy./Diag. 0.10E+00    5.4     0.07028136       -79.1381626063 -3.24E-02
   444 Broy./Diag. 0.10E+00    5.5     0.08020059       -79.3173260360 -1.79E-01
   445 Broy./Diag. 0.10E+00    5.7     0.10743498       -79.4779016773 -1.61E-01
   446 Broy./Diag. 0.10E+00    5.6     0.12296499       -79.6296019052 -1.52E-01
   447 Broy./Diag. 0.10E+00    5.6     0.08843440       -79.8352007107 -2.06E-01
   448 Broy./Diag. 0.10E+00    5.6     0.05814757       -79.8357997650 -5.99E-04
   449 Broy./Diag. 0.10E+00    5.7     0.06414036       -79.8109593702  2.48E-02
   450 Broy./Diag. 0.10E+00    5.7     0.04516458       -79.7481932247  6.28E-02
   451 Broy./Diag. 0.10E+00    5.5     0.03125194       -79.7090622081  3.91E-02
   452 Broy./Diag. 0.10E+00    5.5     0.03264172       -79.7089995816  6.26E-05
   453 Broy./Diag. 0.10E+00    5.5     0.05838190       -79.8319064291 -1.23E-01
   454 Broy./Diag. 0.10E+00    5.5     0.11573492       -79.7270733723  1.05E-01
   455 Broy./Diag. 0.10E+00    5.5     0.61918990       -79.4890093496  2.38E-01
   456 Broy./Diag. 0.10E+00    5.5     0.15505036       -78.5269399074  9.62E-01
   457 Broy./Diag. 0.10E+00    5.5     0.17771587       -78.8991761241 -3.72E-01
   458 Broy./Diag. 0.10E+00    5.5     0.09447588       -79.3512612213 -4.52E-01
   459 Broy./Diag. 0.10E+00    5.5     0.06521876       -79.4652415926 -1.14E-01
   460 Broy./Diag. 0.10E+00    5.7     0.03569564       -79.4315254345  3.37E-02
   461 Broy./Diag. 0.10E+00    5.6     0.03432917       -79.4320549219 -5.29E-04
   462 Broy./Diag. 0.10E+00    5.6     0.01642583       -79.3001190624  1.32E-01
   463 Broy./Diag. 0.10E+00    5.6     0.01042486       -79.3315476077 -3.14E-02
   464 Broy./Diag. 0.10E+00    5.6     0.02411649       -79.3168024294  1.47E-02
   465 Broy./Diag. 0.10E+00    5.5     0.03392886       -79.3755207790 -5.87E-02
   466 Broy./Diag. 0.10E+00    5.6     0.01965458       -79.4354257763 -5.99E-02
   467 Broy./Diag. 0.10E+00    5.6     0.03964571       -79.4454107212 -9.98E-03
   468 Broy./Diag. 0.10E+00    5.5     0.05136770       -79.4977480742 -5.23E-02
   469 Broy./Diag. 0.10E+00    5.5     0.07314537       -79.6099271113 -1.12E-01
   470 Broy./Diag. 0.10E+00    5.4     0.06227292       -79.7369730793 -1.27E-01
   471 Broy./Diag. 0.10E+00    5.4     0.05226280       -79.7563520913 -1.94E-02
   472 Broy./Diag. 0.10E+00    5.5     0.05739429       -79.6993013991  5.71E-02
   473 Broy./Diag. 0.10E+00    5.6     0.07196015       -79.6536789938  4.56E-02
   474 Broy./Diag. 0.10E+00    5.8     0.09356279       -79.6371016747  1.66E-02
   475 Broy./Diag. 0.10E+00    5.6     0.09481793       -79.5182528385  1.19E-01
   476 Broy./Diag. 0.10E+00    5.6     0.07551901       -79.4229978164  9.53E-02
   477 Broy./Diag. 0.10E+00    5.7     0.06181245       -79.4247383615 -1.74E-03
   478 Broy./Diag. 0.10E+00    5.7     0.05412747       -79.3260145111  9.87E-02
   479 Broy./Diag. 0.10E+00    5.5     0.17923274       -79.2337217703  9.23E-02
   480 Broy./Diag. 0.10E+00    5.5     0.09316630       -78.8214867555  4.12E-01
   481 Broy./Diag. 0.10E+00    5.5     0.18259913       -78.7867191356  3.48E-02
   482 Broy./Diag. 0.10E+00    5.5     0.08355046       -78.5178442689  2.69E-01
   483 Broy./Diag. 0.10E+00    5.5     0.08622893       -78.5510380110 -3.32E-02
   484 Broy./Diag. 0.10E+00    5.4     0.10156059       -78.8262404908 -2.75E-01
   485 Broy./Diag. 0.10E+00    5.5     0.09149282       -79.0093332515 -1.83E-01
   486 Broy./Diag. 0.10E+00    5.5     0.03429301       -78.6697476019  3.40E-01
   487 Broy./Diag. 0.10E+00    5.5     0.04427501       -78.5915962390  7.82E-02
   488 Broy./Diag. 0.10E+00    5.6     0.07229350       -78.7948976842 -2.03E-01
   489 Broy./Diag. 0.10E+00    5.8     0.07134597       -78.9716025821 -1.77E-01
   490 Broy./Diag. 0.10E+00    5.8     0.04740080       -79.0967684813 -1.25E-01
   491 Broy./Diag. 0.10E+00    5.6     0.10483043       -79.1342334532 -3.75E-02
   492 Broy./Diag. 0.10E+00    5.6     0.06048609       -79.3521290177 -2.18E-01
   493 Broy./Diag. 0.10E+00    5.5     0.08812278       -79.4379842920 -8.59E-02
   494 Broy./Diag. 0.10E+00    5.5     0.06762723       -79.6359617083 -1.98E-01
   495 Broy./Diag. 0.10E+00    5.6     0.07165630       -79.6955488188 -5.96E-02
   496 Broy./Diag. 0.10E+00    5.5     0.08775053       -79.7689685288 -7.34E-02
   497 Broy./Diag. 0.10E+00    5.6     0.07113336       -79.8538371146 -8.49E-02
   498 Broy./Diag. 0.10E+00    5.5     0.08546598       -79.8608998837 -7.06E-03
   499 Broy./Diag. 0.10E+00    5.5     0.08365219       -79.7542677268  1.07E-01
   500 Broy./Diag. 0.10E+00    5.5     0.07063362       -79.6531818835  1.01E-01

  Leaving inner SCF loop after reaching   500 steps.


  Electronic density on regular grids:         -8.3636222921        3.6363777079
  Core density on regular grids:               12.0000000000        0.0000000000
  Hard and soft densities (Lebedev):          -41.5816915391      -37.9394045931
  Total Rho_soft + Rho1_hard - Rho1_soft      -12.0059092382
  Total charge density (r-space):              -0.0059092382
  Total Rho_soft + Rho0_soft (g-space):        -0.0059092558

  Overlap energy of the core charge distribution:               0.00001993455823
  Self energy of the core charge distribution:                -64.05191455199152
  Core Hamiltonian energy:                                    -14.87231119060129
  Hartree energy:                                              16.89918764323348
  Exchange-correlation energy:                                 -2.75893592692779
  Hartree-Fock Exchange energy:                                -2.53688135161785

  GAPW| Exc from hard and soft atomic rho1:                    -5.33919800581958
  GAPW| local Eh = 1 center integrals:                         -6.99314843436376

  Total energy:                                               -79.65318188353008

 *******************************************************************************
 *   ___                                                                       *
 *  /   \                                                                      *
 * [ABORT]                                                                     *
 *  \___/     SCF run NOT converged. To continue the calculation regardless,   *
 *    |             please set the keyword IGNORE_CONVERGENCE_FAILURE.         *
 *  O/|                                                                        *
 * /| |                                                                        *
 * / \                                                            qs_scf.F:611 *
 *******************************************************************************


 ===== Routine Calling Stack ===== 

            3 scf_env_do_scf
            2 qs_energies
            1 CP2K

 *******************************************************************************
 *   ___                                                                       *
 *  /   \                                                                      *
 * [ABORT]                                                                     *
 *  \___/     SCF run NOT converged. To continue the calculation regardless,   *
 *    |             please set the keyword IGNORE_CONVERGENCE_FAILURE.         *
 *  O/|                                                                        *
 * /| |                                                                        *
 * / \                                                            qs_scf.F:611 *
 *******************************************************************************


 ===== Routine Calling Stack ===== 

            3 scf_env_do_scf
            2 qs_energies
            1 CP2K

 *******************************************************************************
 *   ___                                                                       *
 *  /   \                                                                      *
 * [ABORT]                                                                     *
 *  \___/     SCF run NOT converged. To continue the calculation regardless,   *
 *    |             please set the keyword IGNORE_CONVERGENCE_FAILURE.         *
 *  O/|                                                                        *
 * /| |                                                                        *
 * / \                                                            qs_scf.F:611 *
 *******************************************************************************


 ===== Routine Calling Stack ===== 

            3 scf_env_do_scf
            2 qs_energies
            1 CP2K

 *******************************************************************************
 *   ___                                                                       *
 *  /   \                                                                      *
 * [ABORT]                                                                     *
 *  \___/     SCF run NOT converged. To continue the calculation regardless,   *
 *    |             please set the keyword IGNORE_CONVERGENCE_FAILURE.         *
 *  O/|                                                                        *
 * /| |                                                                        *
 * / \                                                            qs_scf.F:611 *
 *******************************************************************************


 ===== Routine Calling Stack ===== 

            3 scf_env_do_scf
            2 qs_energies
            1 CP2K

 *******************************************************************************
 *   ___                                                                       *
 *  /   \                                                                      *
 * [ABORT]                                                                     *
 *  \___/     SCF run NOT converged. To continue the calculation regardless,   *
 *    |             please set the keyword IGNORE_CONVERGENCE_FAILURE.         *
 *  O/|                                                                        *
 * /| |                                                                        *
 * / \                                                            qs_scf.F:611 *
 *******************************************************************************


 ===== Routine Calling Stack ===== 

            3 scf_env_do_scf
            2 qs_energies
            1 CP2K

 *******************************************************************************
 *   ___                                                                       *
 *  /   \                                                                      *
 * [ABORT]                                                                     *
 *  \___/     SCF run NOT converged. To continue the calculation regardless,   *
 *    |             please set the keyword IGNORE_CONVERGENCE_FAILURE.         *
 *  O/|                                                                        *
 * /| |                                                                        *
 * / \                                                            qs_scf.F:611 *
 *******************************************************************************


 ===== Routine Calling Stack ===== 

            3 scf_env_do_scf
            2 qs_energies
            1 CP2K

 *******************************************************************************
 *   ___                                                                       *
 *  /   \                                                                      *
 * [ABORT]                                                                     *
 *  \___/     SCF run NOT converged. To continue the calculation regardless,   *
 *    |             please set the keyword IGNORE_CONVERGENCE_FAILURE.         *
 *  O/|                                                                        *
 * /| |                                                                        *
 * / \                                                            qs_scf.F:611 *
 *******************************************************************************


 ===== Routine Calling Stack ===== 

            3 scf_env_do_scf
            2 qs_energies
            1 CP2K

 *******************************************************************************
 *   ___                                                                       *
 *  /   \                                                                      *
 * [ABORT]                                                                     *
 *  \___/     SCF run NOT converged. To continue the calculation regardless,   *
 *    |             please set the keyword IGNORE_CONVERGENCE_FAILURE.         *
 *  O/|                                                                        *
 * /| |                                                                        *
 * / \                                                            qs_scf.F:611 *
 *******************************************************************************


 ===== Routine Calling Stack ===== 

            3 scf_env_do_scf
            2 qs_energies
            1 CP2K

 *******************************************************************************
 *   ___                                                                       *
 *  /   \                                                                      *
 * [ABORT]                                                                     *
 *  \___/     SCF run NOT converged. To continue the calculation regardless,   *
 *    |             please set the keyword IGNORE_CONVERGENCE_FAILURE.         *
 *  O/|                                                                        *
 * /| |                                                                        *
 * / \                                                            qs_scf.F:611 *
 *******************************************************************************


 ===== Routine Calling Stack ===== 

            3 scf_env_do_scf
            2 qs_energies
            1 CP2K

 *******************************************************************************
 *   ___                                                                       *
 *  /   \                                                                      *
 * [ABORT]                                                                     *
 *  \___/     SCF run NOT converged. To continue the calculation regardless,   *
 *    |             please set the keyword IGNORE_CONVERGENCE_FAILURE.         *
 *  O/|                                                                        *
 * /| |                                                                        *
 * / \                                                            qs_scf.F:611 *
 *******************************************************************************


 ===== Routine Calling Stack ===== 

            3 scf_env_do_scf
            2 qs_energies
            1 CP2K

 *******************************************************************************
 *   ___                                                                       *
 *  /   \                                                                      *
 * [ABORT]                                                                     *
 *  \___/     SCF run NOT converged. To continue the calculation regardless,   *
 *    |             please set the keyword IGNORE_CONVERGENCE_FAILURE.         *
 *  O/|                                                                        *
 * /| |                                                                        *
 * / \                                                            qs_scf.F:611 *
 *******************************************************************************


 ===== Routine Calling Stack ===== 

            3 scf_env_do_scf
            2 qs_energies
            1 CP2K

 *******************************************************************************
 *   ___                                                                       *
 *  /   \                                                                      *
 * [ABORT]                                                                     *
 *  \___/     SCF run NOT converged. To continue the calculation regardless,   *
 *    |             please set the keyword IGNORE_CONVERGENCE_FAILURE.         *
 *  O/|                                                                        *
 * /| |                                                                        *
 * / \                                                            qs_scf.F:611 *
 *******************************************************************************


 ===== Routine Calling Stack ===== 

            3 scf_env_do_scf
            2 qs_energies
            1 CP2K

 *******************************************************************************
 *   ___                                                                       *
 *  /   \                                                                      *
 * [ABORT]                                                                     *
 *  \___/     SCF run NOT converged. To continue the calculation regardless,   *
 *    |             please set the keyword IGNORE_CONVERGENCE_FAILURE.         *
 *  O/|                                                                        *
 * /| |                                                                        *
 * / \                                                            qs_scf.F:611 *
 *******************************************************************************


 ===== Routine Calling Stack ===== 

            3 scf_env_do_scf
            2 qs_energies
            1 CP2K
