 DBCSR| CPU Multiplication driver                                           BLAS (U)
 DBCSR| Multrec recursion limit                                              512 (U)
 DBCSR| Multiplication stack size                                           1000 (D)
 DBCSR| Maximum elements for images                                    UNLIMITED (U)
 DBCSR| Multiplicative factor virtual images                                   1 (U)
 DBCSR| Use multiplication densification                                       T (D)
 DBCSR| Multiplication size stacks                                             3 (U)
 DBCSR| Use memory pool for CPU allocation                                     F (U)
 DBCSR| Number of 3D layers                                               SINGLE (U)
 DBCSR| Use MPI memory allocation                                              F (U)
 DBCSR| Use RMA algorithm                                                      F (U)
 DBCSR| Use Communication thread                                               T (U)
 DBCSR| Communication thread load                                             75 (D)
 DBCSR| MPI: My process id                                                     0
 DBCSR| MPI: Number of processes                                              48
 DBCSR| OMP: Current number of threads                                         4
 DBCSR| OMP: Max number of threads                                             4
 DBCSR| Split modifier for TAS multiplication algorithm                  1.0E+00 (U)


  **** **** ******  **  PROGRAM STARTED AT               2025-03-26 06:42:40.114
 ***** ** ***  *** **   PROGRAM STARTED ON                          i05r08c05s06
 **    ****   ******    PROGRAM STARTED BY                               di38fab
 ***** **    ** ** **   PROGRAM PROCESS ID                               3155611
  **** **  *******  **  PROGRAM STARTED IN /hppfs/scratch/04/di38fab/05_MOL/W4-1
                                           1+ALK/so/TZVP/GW+BSE/1e-4

 CP2K| version string:                 CP2K version 2025.1 (Development Version)
 CP2K| source code revision number:                                  git:d2e611a
 CP2K| cp2kflags: omp libint fftw3 libxc parallel scalapack max_contr=4         
 CP2K| is freely available from                            https://www.cp2k.org/
 CP2K| Program compiled at                       Thu 06 Mar 2025 05:09:20 PM CET
 CP2K| Program compiled on                                               login02
 CP2K| Program compiled for                                        Supermuc-foss
 CP2K| Data directory path                  /hppfs/work/pn36zo/di38fab/cp2k/data
 CP2K| Input file name                                                    GW.inp

 GLOBAL| Force Environment number                                              1
 GLOBAL| Basis set file name            /hppfs/scratch/04/di38fab/04_TMD/BASIS_A
 GLOBAL| Potential file name            /hppfs/work/pn36zo/di38fab/cp2k/data/ALL
 GLOBAL| MM Potential file name                                     MM_POTENTIAL
 GLOBAL| Coordinate file name                                      __STD_INPUT__
 GLOBAL| Method name                                                        CP2K
 GLOBAL| Project name                                                       MoS2
 GLOBAL| Run type                                                         ENERGY
 GLOBAL| FFT library                                                       FFTW3
 GLOBAL| Diagonalization library                                       ScaLAPACK
 GLOBAL| DGEMM library                                                      BLAS
 GLOBAL| Orthonormality check for eigenvectors                          DISABLED
 GLOBAL| Matrix multiplication library                                 ScaLAPACK
 GLOBAL| All-to-all communication in single precision                          F
 GLOBAL| FFTs using library dependent lengths                                  F
 GLOBAL| Grid backend                                                       AUTO
 GLOBAL| Global print level                                               MEDIUM
 GLOBAL| MPI I/O enabled                                                       T
 GLOBAL| Total number of message passing processes                            48
 GLOBAL| Number of threads for this process                                    4
 GLOBAL| This output is from process                                           0
 GLOBAL| OpenMP stack size per thread (OMP_STACKSIZE)                    default
 GLOBAL| CPU model name             Intel(R) Xeon(R) Platinum 8174 CPU @ 3.10GHz

 MEMORY| system memory details [Kb]
 MEMORY|                        rank 0           min           max       average
 MEMORY| MemTotal             98436664      98436664      98436708      98436686
 MEMORY| MemFree              84232920      83814972      84232920      83973343
 MEMORY| Buffers                     0             0             0             0
 MEMORY| Cached                2398608       2390936       2417888       2399841
 MEMORY| Slab                  1213568       1213568       1230356       1223824
 MEMORY| SReclaimable           275852        270788        279496        276349
 MEMORY| MemLikelyFree        86907380      86485168      86907380      86649533


 *** Fundamental physical constants (SI units) ***

 *** Literature: B. J. Mohr and B. N. Taylor,
 ***             CODATA recommended values of the fundamental physical
 ***             constants: 2006, Web Version 5.1
 ***             http://physics.nist.gov/constants

 Speed of light in vacuum [m/s]                             2.99792458000000E+08
 Magnetic constant or permeability of vacuum [N/A**2]       1.25663706143592E-06
 Electric constant or permittivity of vacuum [F/m]          8.85418781762039E-12
 Planck constant (h) [J*s]                                  6.62606896000000E-34
 Planck constant (h-bar) [J*s]                              1.05457162825177E-34
 Elementary charge [C]                                      1.60217648700000E-19
 Electron mass [kg]                                         9.10938215000000E-31
 Electron g factor [ ]                                     -2.00231930436220E+00
 Proton mass [kg]                                           1.67262163700000E-27
 Fine-structure constant                                    7.29735253760000E-03
 Rydberg constant [1/m]                                     1.09737315685270E+07
 Avogadro constant [1/mol]                                  6.02214179000000E+23
 Boltzmann constant [J/K]                                   1.38065040000000E-23
 Atomic mass unit [kg]                                      1.66053878200000E-27
 Bohr radius [m]                                            5.29177208590000E-11

 *** Conversion factors ***

 [u] -> [a.u.]                                              1.82288848426455E+03
 [Angstrom] -> [Bohr] = [a.u.]                              1.88972613288564E+00
 [a.u.] = [Bohr] -> [Angstrom]                              5.29177208590000E-01
 [a.u.] -> [s]                                              2.41888432650478E-17
 [a.u.] -> [fs]                                             2.41888432650478E-02
 [a.u.] -> [J]                                              4.35974393937059E-18
 [a.u.] -> [N]                                              8.23872205491840E-08
 [a.u.] -> [K]                                              3.15774647902944E+05
 [a.u.] -> [kJ/mol]                                         2.62549961709828E+03
 [a.u.] -> [kcal/mol]                                       6.27509468713739E+02
 [a.u.] -> [Pa]                                             2.94210107994716E+13
 [a.u.] -> [bar]                                            2.94210107994716E+08
 [a.u.] -> [atm]                                            2.90362800883016E+08
 [a.u.] -> [eV]                                             2.72113838565563E+01
 [a.u.] -> [Hz]                                             6.57968392072181E+15
 [a.u.] -> [1/cm] (wave numbers)                            2.19474631370540E+05
 [a.u./Bohr**2] -> [1/cm]                                   5.14048714338585E+03
 

 CELL_TOP| Volume [angstrom^3]:                                     27000.000000
 CELL_TOP| Vector a [angstrom    30.000     0.000     0.000   |a| =    30.000000
 CELL_TOP| Vector b [angstrom     0.000    30.000     0.000   |b| =    30.000000
 CELL_TOP| Vector c [angstrom     0.000     0.000    30.000   |c| =    30.000000
 CELL_TOP| Angle (b,c), alpha [degree]:                                90.000000
 CELL_TOP| Angle (a,c), beta  [degree]:                                90.000000
 CELL_TOP| Angle (a,b), gamma [degree]:                                90.000000
 CELL_TOP| Numerically orthorhombic:                                         YES
 CELL_TOP| Periodicity                                                      NONE

 GENERATE|  Preliminary Number of Bonds generated:                             0
 GENERATE|  Achieved consistency in connectivity generation.

 CELL| Volume [angstrom^3]:                                         27000.000000
 CELL| Vector a [angstrom]:      30.000     0.000     0.000   |a| =    30.000000
 CELL| Vector b [angstrom]:       0.000    30.000     0.000   |b| =    30.000000
 CELL| Vector c [angstrom]:       0.000     0.000    30.000   |c| =    30.000000
 CELL| Angle (b,c), alpha [degree]:                                    90.000000
 CELL| Angle (a,c), beta  [degree]:                                    90.000000
 CELL| Angle (a,b), gamma [degree]:                                    90.000000
 CELL| Numerically orthorhombic:                                             YES
 CELL| Periodicity                                                          NONE

 CELL_REF| Volume [angstrom^3]:                                     27000.000000
 CELL_REF| Vector a [angstrom    30.000     0.000     0.000   |a| =    30.000000
 CELL_REF| Vector b [angstrom     0.000    30.000     0.000   |b| =    30.000000
 CELL_REF| Vector c [angstrom     0.000     0.000    30.000   |c| =    30.000000
 CELL_REF| Angle (b,c), alpha [degree]:                                90.000000
 CELL_REF| Angle (a,c), beta  [degree]:                                90.000000
 CELL_REF| Angle (a,b), gamma [degree]:                                90.000000
 CELL_REF| Numerically orthorhombic:                                         YES
 CELL_REF| Periodicity                                                      NONE

 *******************************************************************************
 *******************************************************************************
 **                                                                           **
 **     #####                         ##              ##                      **
 **    ##   ##            ##          ##              ##                      **
 **   ##     ##                       ##            ######                    **
 **   ##     ##  ##   ##  ##   #####  ##  ##   ####   ##    #####    #####    **
 **   ##     ##  ##   ##  ##  ##      ## ##   ##      ##   ##   ##  ##   ##   **
 **   ##  ## ##  ##   ##  ##  ##      ####     ###    ##   ######   ######    **
 **    ##  ###   ##   ##  ##  ##      ## ##      ##   ##   ##       ##        **
 **     #######   #####   ##   #####  ##  ##  ####    ##    #####   ##        **
 **           ##                                                    ##        **
 **                                                                           **
 **                                                ... make the atoms dance   **
 **                                                                           **
 **            Copyright (C) by CP2K developers group (2000-2025)             **
 **                      J. Chem. Phys. 152, 194103 (2020)                    **
 **                                                                           **
 *******************************************************************************

 DFT| Spin restricted Kohn-Sham (RKS) calculation                            RKS
 DFT| Multiplicity                                                             1
 DFT| Number of spin states                                                    1
 DFT| Charge                                                                   0
 DFT| Self-interaction correction (SIC)                                       NO
 DFT| Cutoffs: density                                              1.000000E-10
 DFT|          gradient                                             1.000000E-10
 DFT|          tau                                                  1.000000E-10
 DFT|          cutoff_smoothing_range                               0.000000E+00
 DFT| XC density smoothing                                                  NONE
 DFT| XC derivatives                                                          PW

 FUNCTIONAL| PBE:
 FUNCTIONAL| J.P.Perdew, K.Burke, M.Ernzerhof, Phys. Rev. Letter, vol. 77, n 18,
 FUNCTIONAL|  pp. 3865-3868, (1996)sx=0.750sc=1.000{spin unpolarized}           


 QS| Method:                                                                GAPW
 QS| Density plane wave grid type                        NON-SPHERICAL FULLSPACE
 QS| Number of grid levels:                                                    4
 QS| Density cutoff [a.u.]:                                                250.0
 QS| Multi grid cutoff [a.u.]: 1) grid level                               250.0
 QS|                           2) grid level                                83.3
 QS|                           3) grid level                                27.8
 QS|                           4) grid level                                 9.3
 QS| Grid level progression factor:                                          3.0
 QS| Relative density cutoff [a.u.]:                                        50.0
 QS| Interaction thresholds: eps_pgf_orb:                                1.0E-12
 QS|                         eps_filter_matrix:                          0.0E+00
 QS|                         eps_core_charge:                            1.0E-14
 QS|                         eps_rho_gspace:                             1.0E-12
 QS|                         eps_rho_rspace:                             1.0E-12
 QS|                         eps_gvg_rspace:                             1.0E-06
 QS|                         eps_ppl:                                    1.0E-02
 QS|                         eps_ppnl:                                   1.0E-08
 QS| GAPW|      One center basis from orbital basis primitives
 QS| GAPW|                   eps_fit:                                    1.0E-04
 QS| GAPW|                   eps_iso:                                    1.0E-12
 QS| GAPW|                   eps_svd:                                    1.0E-08
 QS| GAPW|                   eps_cpc:                                    1.0E-12
 QS| GAPW|   atom-r-grid: quadrature:                                     GC_LOG
 QS| GAPW|      atom-s-grid:  max l :                                          8
 QS| GAPW|      max_l_rho0 :                                                   2


 ATOMIC KIND INFORMATION

  1. Atomic kind: S                                     Number of atoms:       1

     Orbital Basis Set                                        aug-TZVP-MOLOPT-ae

       Number of orbital shell sets:                                           3
       Number of orbital shells:                                              19
       Number of primitive Cartesian functions:                               18
       Number of Cartesian basis functions:                                   83
       Number of spherical basis functions:                                   67
       Norm type:                                                              2

       Normalised Cartesian orbitals:

                        Set   Shell   Orbital            Exponent    Coefficient

                          1       1    1s                0.070000       0.000000
                                                         0.108835       0.013266
                                                         0.337374       0.012100
                                                         0.960895       0.130293
                                                         2.588982       1.264457
                                                         6.979742      -0.364059

                          1       2    2s                0.070000       0.000000
                                                         0.108835       0.034021
                                                         0.337374       0.245140
                                                         0.960895       0.048241
                                                         2.588982      -0.118998
                                                         6.979742      -0.088161

                          1       3    3s                0.070000       0.000000
                                                         0.108835       0.180243
                                                         0.337374      -0.135069
                                                         0.960895      -0.101980
                                                         2.588982      -0.138109
                                                         6.979742       0.112763

                          1       4    4s                0.070000       0.388827
                                                         0.108835      -0.520384
                                                         0.337374       0.118735
                                                         0.960895      -0.135046
                                                         2.588982       0.000000
                                                         6.979742       0.000000

                          1       5    2px               0.070000       0.000000
                                                         0.108835      -0.002937
                                                         0.337374      -0.012178
                                                         0.960895       0.076300
                                                         2.588982       4.614810
                                                         6.979742      -0.327261
                          1       5    2py               0.070000       0.000000
                                                         0.108835      -0.002937
                                                         0.337374      -0.012178
                                                         0.960895       0.076300
                                                         2.588982       4.614810
                                                         6.979742      -0.327261
                          1       5    2pz               0.070000       0.000000
                                                         0.108835      -0.002937
                                                         0.337374      -0.012178
                                                         0.960895       0.076300
                                                         2.588982       4.614810
                                                         6.979742      -0.327261

                          1       6    3px               0.070000       0.000000
                                                         0.108835       0.007683
                                                         0.337374      -0.014106
                                                         0.960895       1.273560
                                                         2.588982      -0.221492
                                                         6.979742       3.701676
                          1       6    3py               0.070000       0.000000
                                                         0.108835       0.007683
                                                         0.337374      -0.014106
                                                         0.960895       1.273560
                                                         2.588982      -0.221492
                                                         6.979742       3.701676
                          1       6    3pz               0.070000       0.000000
                                                         0.108835       0.007683
                                                         0.337374      -0.014106
                                                         0.960895       1.273560
                                                         2.588982      -0.221492
                                                         6.979742       3.701676

                          1       7    4px               0.070000       0.000000
                                                         0.108835      -0.000876
                                                         0.337374       0.351508
                                                         0.960895       0.087271
                                                         2.588982       0.123593
                                                         6.979742      -1.513929
                          1       7    4py               0.070000       0.000000
                                                         0.108835      -0.000876
                                                         0.337374       0.351508
                                                         0.960895       0.087271
                                                         2.588982       0.123593
                                                         6.979742      -1.513929
                          1       7    4pz               0.070000       0.000000
                                                         0.108835      -0.000876
                                                         0.337374       0.351508
                                                         0.960895       0.087271
                                                         2.588982       0.123593
                                                         6.979742      -1.513929

                          1       8    5px               0.070000       0.000000
                                                         0.108835       0.089997
                                                         0.337374       0.005487
                                                         0.960895      -0.121225
                                                         2.588982       0.184056
                                                         6.979742      -0.048847
                          1       8    5py               0.070000       0.000000
                                                         0.108835       0.089997
                                                         0.337374       0.005487
                                                         0.960895      -0.121225
                                                         2.588982       0.184056
                                                         6.979742      -0.048847
                          1       8    5pz               0.070000       0.000000
                                                         0.108835       0.089997
                                                         0.337374       0.005487
                                                         0.960895      -0.121225
                                                         2.588982       0.184056
                                                         6.979742      -0.048847

                          1       9    6px               0.070000      -0.087079
                                                         0.108835       0.073795
                                                         0.337374       0.129559
                                                         0.960895       0.329085
                                                         2.588982       0.000000
                                                         6.979742       0.000000
                          1       9    6py               0.070000      -0.087079
                                                         0.108835       0.073795
                                                         0.337374       0.129559
                                                         0.960895       0.329085
                                                         2.588982       0.000000
                                                         6.979742       0.000000
                          1       9    6pz               0.070000      -0.087079
                                                         0.108835       0.073795
                                                         0.337374       0.129559
                                                         0.960895       0.329085
                                                         2.588982       0.000000
                                                         6.979742       0.000000

                          1      10    3dx2              0.070000       0.000000
                                                         0.108835      -0.002664
                                                         0.337374       0.000155
                                                         0.960895       0.110041
                                                         2.588982       7.758864
                                                         6.979742       4.377448
                          1      10    3dxy              0.070000       0.000000
                                                         0.108835      -0.004614
                                                         0.337374       0.000269
                                                         0.960895       0.190596
                                                         2.588982      13.438746
                                                         6.979742       7.581963
                          1      10    3dxz              0.070000       0.000000
                                                         0.108835      -0.004614
                                                         0.337374       0.000269
                                                         0.960895       0.190596
                                                         2.588982      13.438746
                                                         6.979742       7.581963
                          1      10    3dy2              0.070000       0.000000
                                                         0.108835      -0.002664
                                                         0.337374       0.000155
                                                         0.960895       0.110041
                                                         2.588982       7.758864
                                                         6.979742       4.377448
                          1      10    3dyz              0.070000       0.000000
                                                         0.108835      -0.004614
                                                         0.337374       0.000269
                                                         0.960895       0.190596
                                                         2.588982      13.438746
                                                         6.979742       7.581963
                          1      10    3dz2              0.070000       0.000000
                                                         0.108835      -0.002664
                                                         0.337374       0.000155
                                                         0.960895       0.110041
                                                         2.588982       7.758864
                                                         6.979742       4.377448

                          1      11    4dx2              0.070000       0.000000
                                                         0.108835       0.006428
                                                         0.337374      -0.014764
                                                         0.960895       1.596811
                                                         2.588982      -0.539760
                                                         6.979742      -2.400041
                          1      11    4dxy              0.070000       0.000000
                                                         0.108835       0.011134
                                                         0.337374      -0.025572
                                                         0.960895       2.765758
                                                         2.588982      -0.934892
                                                         6.979742      -4.156993
                          1      11    4dxz              0.070000       0.000000
                                                         0.108835       0.011134
                                                         0.337374      -0.025572
                                                         0.960895       2.765758
                                                         2.588982      -0.934892
                                                         6.979742      -4.156993
                          1      11    4dy2              0.070000       0.000000
                                                         0.108835       0.006428
                                                         0.337374      -0.014764
                                                         0.960895       1.596811
                                                         2.588982      -0.539760
                                                         6.979742      -2.400041
                          1      11    4dyz              0.070000       0.000000
                                                         0.108835       0.011134
                                                         0.337374      -0.025572
                                                         0.960895       2.765758
                                                         2.588982      -0.934892
                                                         6.979742      -4.156993
                          1      11    4dz2              0.070000       0.000000
                                                         0.108835       0.006428
                                                         0.337374      -0.014764
                                                         0.960895       1.596811
                                                         2.588982      -0.539760
                                                         6.979742      -2.400041

                          1      12    5dx2              0.070000       0.000000
                                                         0.108835       0.005425
                                                         0.337374       0.214995
                                                         0.960895       0.038730
                                                         2.588982       0.032490
                                                         6.979742       3.807379
                          1      12    5dxy              0.070000       0.000000
                                                         0.108835       0.009397
                                                         0.337374       0.372382
                                                         0.960895       0.067083
                                                         2.588982       0.056275
                                                         6.979742       6.594574
                          1      12    5dxz              0.070000       0.000000
                                                         0.108835       0.009397
                                                         0.337374       0.372382
                                                         0.960895       0.067083
                                                         2.588982       0.056275
                                                         6.979742       6.594574
                          1      12    5dy2              0.070000       0.000000
                                                         0.108835       0.005425
                                                         0.337374       0.214995
                                                         0.960895       0.038730
                                                         2.588982       0.032490
                                                         6.979742       3.807379
                          1      12    5dyz              0.070000       0.000000
                                                         0.108835       0.009397
                                                         0.337374       0.372382
                                                         0.960895       0.067083
                                                         2.588982       0.056275
                                                         6.979742       6.594574
                          1      12    5dz2              0.070000       0.000000
                                                         0.108835       0.005425
                                                         0.337374       0.214995
                                                         0.960895       0.038730
                                                         2.588982       0.032490
                                                         6.979742       3.807379

                          1      13    6dx2              0.070000      -0.001482
                                                         0.108835       0.032559
                                                         0.337374       0.051881
                                                         0.960895      -0.801866
                                                         2.588982       0.000000
                                                         6.979742       0.000000
                          1      13    6dxy              0.070000      -0.002568
                                                         0.108835       0.056394
                                                         0.337374       0.089861
                                                         0.960895      -1.388872
                                                         2.588982       0.000000
                                                         6.979742       0.000000
                          1      13    6dxz              0.070000      -0.002568
                                                         0.108835       0.056394
                                                         0.337374       0.089861
                                                         0.960895      -1.388872
                                                         2.588982       0.000000
                                                         6.979742       0.000000
                          1      13    6dy2              0.070000      -0.001482
                                                         0.108835       0.032559
                                                         0.337374       0.051881
                                                         0.960895      -0.801866
                                                         2.588982       0.000000
                                                         6.979742       0.000000
                          1      13    6dyz              0.070000      -0.002568
                                                         0.108835       0.056394
                                                         0.337374       0.089861
                                                         0.960895      -1.388872
                                                         2.588982       0.000000
                                                         6.979742       0.000000
                          1      13    6dz2              0.070000      -0.001482
                                                         0.108835       0.032559
                                                         0.337374       0.051881
                                                         0.960895      -0.801866
                                                         2.588982       0.000000
                                                         6.979742       0.000000

                          1      14    4fx3              0.070000       0.000000
                                                         0.108835       0.000429
                                                         0.337374       0.095218
                                                         0.960895       0.455377
                                                         2.588982       0.330480
                                                         6.979742      -3.204551
                          1      14    4fx2y             0.070000       0.000000
                                                         0.108835       0.000958
                                                         0.337374       0.212915
                                                         0.960895       1.018255
                                                         2.588982       0.738976
                                                         6.979742      -7.165595
                          1      14    4fx2z             0.070000       0.000000
                                                         0.108835       0.000958
                                                         0.337374       0.212915
                                                         0.960895       1.018255
                                                         2.588982       0.738976
                                                         6.979742      -7.165595
                          1      14    4fxy2             0.070000       0.000000
                                                         0.108835       0.000958
                                                         0.337374       0.212915
                                                         0.960895       1.018255
                                                         2.588982       0.738976
                                                         6.979742      -7.165595
                          1      14    4fxyz             0.070000       0.000000
                                                         0.108835       0.001660
                                                         0.337374       0.368779
                                                         0.960895       1.763669
                                                         2.588982       1.279944
                                                         6.979742     -12.411174
                          1      14    4fxz2             0.070000       0.000000
                                                         0.108835       0.000958
                                                         0.337374       0.212915
                                                         0.960895       1.018255
                                                         2.588982       0.738976
                                                         6.979742      -7.165595
                          1      14    4fy3              0.070000       0.000000
                                                         0.108835       0.000429
                                                         0.337374       0.095218
                                                         0.960895       0.455377
                                                         2.588982       0.330480
                                                         6.979742      -3.204551
                          1      14    4fy2z             0.070000       0.000000
                                                         0.108835       0.000958
                                                         0.337374       0.212915
                                                         0.960895       1.018255
                                                         2.588982       0.738976
                                                         6.979742      -7.165595
                          1      14    4fyz2             0.070000       0.000000
                                                         0.108835       0.000958
                                                         0.337374       0.212915
                                                         0.960895       1.018255
                                                         2.588982       0.738976
                                                         6.979742      -7.165595
                          1      14    4fz3              0.070000       0.000000
                                                         0.108835       0.000429
                                                         0.337374       0.095218
                                                         0.960895       0.455377
                                                         2.588982       0.330480
                                                         6.979742      -3.204551

                          1      15    5fx3              0.070000       0.001909
                                                         0.108835       0.002552
                                                         0.337374       0.053416
                                                         0.960895       0.068765
                                                         2.588982       0.000000
                                                         6.979742       0.000000
                          1      15    5fx2y             0.070000       0.004270
                                                         0.108835       0.005706
                                                         0.337374       0.119442
                                                         0.960895       0.153763
                                                         2.588982       0.000000
                                                         6.979742       0.000000
                          1      15    5fx2z             0.070000       0.004270
                                                         0.108835       0.005706
                                                         0.337374       0.119442
                                                         0.960895       0.153763
                                                         2.588982       0.000000
                                                         6.979742       0.000000
                          1      15    5fxy2             0.070000       0.004270
                                                         0.108835       0.005706
                                                         0.337374       0.119442
                                                         0.960895       0.153763
                                                         2.588982       0.000000
                                                         6.979742       0.000000
                          1      15    5fxyz             0.070000       0.007395
                                                         0.108835       0.009884
                                                         0.337374       0.206880
                                                         0.960895       0.266325
                                                         2.588982       0.000000
                                                         6.979742       0.000000
                          1      15    5fxz2             0.070000       0.004270
                                                         0.108835       0.005706
                                                         0.337374       0.119442
                                                         0.960895       0.153763
                                                         2.588982       0.000000
                                                         6.979742       0.000000
                          1      15    5fy3              0.070000       0.001909
                                                         0.108835       0.002552
                                                         0.337374       0.053416
                                                         0.960895       0.068765
                                                         2.588982       0.000000
                                                         6.979742       0.000000
                          1      15    5fy2z             0.070000       0.004270
                                                         0.108835       0.005706
                                                         0.337374       0.119442
                                                         0.960895       0.153763
                                                         2.588982       0.000000
                                                         6.979742       0.000000
                          1      15    5fyz2             0.070000       0.004270
                                                         0.108835       0.005706
                                                         0.337374       0.119442
                                                         0.960895       0.153763
                                                         2.588982       0.000000
                                                         6.979742       0.000000
                          1      15    5fz3              0.070000       0.001909
                                                         0.108835       0.002552
                                                         0.337374       0.053416
                                                         0.960895       0.068765
                                                         2.588982       0.000000
                                                         6.979742       0.000000

                          1      16    5gx4              0.070000       0.000047
                                                         0.108835       0.001265
                                                         0.337374       0.021046
                                                         0.960895       0.426827
                                                         2.588982       0.000000
                                                         6.979742       0.000000
                          1      16    5gx3y             0.070000       0.000124
                                                         0.108835       0.003347
                                                         0.337374       0.055682
                                                         0.960895       1.129279
                                                         2.588982       0.000000
                                                         6.979742       0.000000
                          1      16    5gx3z             0.070000       0.000124
                                                         0.108835       0.003347
                                                         0.337374       0.055682
                                                         0.960895       1.129279
                                                         2.588982       0.000000
                                                         6.979742       0.000000
                          1      16    5gx2y2            0.070000       0.000160
                                                         0.108835       0.004321
                                                         0.337374       0.071885
                                                         0.960895       1.457893
                                                         2.588982       0.000000
                                                         6.979742       0.000000
                          1      16    5gx2yz            0.070000       0.000277
                                                         0.108835       0.007484
                                                         0.337374       0.124509
                                                         0.960895       2.525145
                                                         2.588982       0.000000
                                                         6.979742       0.000000
                          1      16    5gx2z2            0.070000       0.000160
                                                         0.108835       0.004321
                                                         0.337374       0.071885
                                                         0.960895       1.457893
                                                         2.588982       0.000000
                                                         6.979742       0.000000
                          1      16    5gxy3             0.070000       0.000124
                                                         0.108835       0.003347
                                                         0.337374       0.055682
                                                         0.960895       1.129279
                                                         2.588982       0.000000
                                                         6.979742       0.000000
                          1      16    5gxy2z            0.070000       0.000277
                                                         0.108835       0.007484
                                                         0.337374       0.124509
                                                         0.960895       2.525145
                                                         2.588982       0.000000
                                                         6.979742       0.000000
                          1      16    5gxyz2            0.070000       0.000277
                                                         0.108835       0.007484
                                                         0.337374       0.124509
                                                         0.960895       2.525145
                                                         2.588982       0.000000
                                                         6.979742       0.000000
                          1      16    5gxz3             0.070000       0.000124
                                                         0.108835       0.003347
                                                         0.337374       0.055682
                                                         0.960895       1.129279
                                                         2.588982       0.000000
                                                         6.979742       0.000000
                          1      16    5gy4              0.070000       0.000047
                                                         0.108835       0.001265
                                                         0.337374       0.021046
                                                         0.960895       0.426827
                                                         2.588982       0.000000
                                                         6.979742       0.000000
                          1      16    5gy3z             0.070000       0.000124
                                                         0.108835       0.003347
                                                         0.337374       0.055682
                                                         0.960895       1.129279
                                                         2.588982       0.000000
                                                         6.979742       0.000000
                          1      16    5gy2z2            0.070000       0.000160
                                                         0.108835       0.004321
                                                         0.337374       0.071885
                                                         0.960895       1.457893
                                                         2.588982       0.000000
                                                         6.979742       0.000000
                          1      16    5gyz3             0.070000       0.000124
                                                         0.108835       0.003347
                                                         0.337374       0.055682
                                                         0.960895       1.129279
                                                         2.588982       0.000000
                                                         6.979742       0.000000
                          1      16    5gz4              0.070000       0.000047
                                                         0.108835       0.001265
                                                         0.337374       0.021046
                                                         0.960895       0.426827
                                                         2.588982       0.000000
                                                         6.979742       0.000000

                          2       1    1s              564.299947      -0.099555
                                                       133.435938       0.657203
                                                        42.458538       2.552463
                                                        15.602047       0.510094
                                                         6.412455      -3.378408

                          2       2    2px             564.299947      15.172905
                                                       133.435938      18.462241
                                                        42.458538      21.408666
                                                        15.602047      16.129425
                                                         6.412455       8.641889
                          2       2    2py             564.299947      15.172905
                                                       133.435938      18.462241
                                                        42.458538      21.408666
                                                        15.602047      16.129425
                                                         6.412455       8.641889
                          2       2    2pz             564.299947      15.172905
                                                       133.435938      18.462241
                                                        42.458538      21.408666
                                                        15.602047      16.129425
                                                         6.412455       8.641889

                          3       1    1s            60700.943664       1.476128
                                                      9102.630460       2.715092
                                                      2071.464789       4.589094
                                                       585.934823       6.954969
                                                       190.479130       8.693815
                                                        67.668075       7.512637
                                                        24.765148       2.768602

     RI Auxiliary Basis Set             RI_aug-TZVP-MOLOPT-ae_N_RI_107_s_p_d_f_g

       Number of orbital shell sets:                                          25
       Number of orbital shells:                                              25
       Number of primitive Cartesian functions:                               25
       Number of Cartesian basis functions:                                  146
       Number of spherical basis functions:                                  107
       Norm type:                                                              2

       Normalised Cartesian orbitals:

                        Set   Shell   Orbital            Exponent    Coefficient

                          1       1    1s                0.257211       0.257411

                          2       1   19fx3              0.324090       0.116668
                          2       1   19fx2y             0.324090       0.260879
                          2       1   19fx2z             0.324090       0.260879
                          2       1   19fxy2             0.324090       0.260879
                          2       1   19fxyz             0.324090       0.451855
                          2       1   19fxz2             0.324090       0.260879
                          2       1   19fy3              0.324090       0.116668
                          2       1   19fy2z             0.324090       0.260879
                          2       1   19fyz2             0.324090       0.260879
                          2       1   19fz3              0.324090       0.116668

                          3       1    8px               0.330364       0.357010
                          3       1    8py               0.330364       0.357010
                          3       1    8pz               0.330364       0.357010

                          4       1   14dx2              0.396524       0.326123
                          4       1   14dxy              0.396524       0.564862
                          4       1   14dxz              0.396524       0.564862
                          4       1   14dy2              0.396524       0.326123
                          4       1   14dyz              0.396524       0.564862
                          4       1   14dz2              0.396524       0.326123

                          5       1    2s                0.430438       0.378742

                          6       1    9px               0.572677       0.710113
                          6       1    9py               0.572677       0.710113
                          6       1    9pz               0.572677       0.710113

                          7       1   15dx2              0.606012       0.685097
                          7       1   15dxy              0.606012       1.186623
                          7       1   15dxz              0.606012       1.186623
                          7       1   15dy2              0.606012       0.685097
                          7       1   15dyz              0.606012       1.186623
                          7       1   15dz2              0.606012       0.685097

                          8       1   20fx3              0.706703       0.674121
                          8       1   20fx2y             0.706703       1.507380
                          8       1   20fx2z             0.706703       1.507380
                          8       1   20fxy2             0.706703       1.507380
                          8       1   20fxyz             0.706703       2.610860
                          8       1   20fxz2             0.706703       1.507380
                          8       1   20fy3              0.706703       0.674121
                          8       1   20fy2z             0.706703       1.507380
                          8       1   20fyz2             0.706703       1.507380
                          8       1   20fz3              0.706703       0.674121

                          9       1   23gx4              0.810408       0.624267
                          9       1   23gx3y             0.810408       1.651656
                          9       1   23gx3z             0.810408       1.651656
                          9       1   23gx2y2            0.810408       2.132278
                          9       1   23gx2yz            0.810408       3.693215
                          9       1   23gx2z2            0.810408       2.132278
                          9       1   23gxy3             0.810408       1.651656
                          9       1   23gxy2z            0.810408       3.693215
                          9       1   23gxyz2            0.810408       3.693215
                          9       1   23gxz3             0.810408       1.651656
                          9       1   23gy4              0.810408       0.624267
                          9       1   23gy3z             0.810408       1.651656
                          9       1   23gy2z2            0.810408       2.132278
                          9       1   23gyz3             0.810408       1.651656
                          9       1   23gz4              0.810408       0.624267

                         10       1   25hx5              0.985892       0.708418
                         10       1   25hx4y             0.985892       2.125255
                         10       1   25hx4z             0.985892       2.125255
                         10       1   25hx3y2            0.985892       3.246380
                         10       1   25hx3yz            0.985892       5.622895
                         10       1   25hx3z2            0.985892       3.246380
                         10       1   25hx2y3            0.985892       3.246380
                         10       1   25hx2y2z           0.985892       7.259126
                         10       1   25hx2yz2           0.985892       7.259126
                         10       1   25hx2z3            0.985892       3.246380
                         10       1   25hxy4             0.985892       2.125255
                         10       1   25hxy3z            0.985892       5.622895
                         10       1   25hxy2z2           0.985892       7.259126
                         10       1   25hxyz3            0.985892       5.622895
                         10       1   25hxz4             0.985892       2.125255
                         10       1   25hy5              0.985892       0.708418
                         10       1   25hy4z             0.985892       2.125255
                         10       1   25hy3z2            0.985892       3.246380
                         10       1   25hy2z3            0.985892       3.246380
                         10       1   25hyz4             0.985892       2.125255
                         10       1   25hz5              0.985892       0.708418

                         11       1    3s                1.588431       1.008408

                         12       1   24gx4              1.630940       4.272084
                         12       1   24gx3y             1.630940      11.302873
                         12       1   24gx3z             1.630940      11.302873
                         12       1   24gx2y2            1.630940      14.591946
                         12       1   24gx2yz            1.630940      25.273992
                         12       1   24gx2z2            1.630940      14.591946
                         12       1   24gxy3             1.630940      11.302873
                         12       1   24gxy2z            1.630940      25.273992
                         12       1   24gxyz2            1.630940      25.273992
                         12       1   24gxz3             1.630940      11.302873
                         12       1   24gy4              1.630940       4.272084
                         12       1   24gy3z             1.630940      11.302873
                         12       1   24gy2z2            1.630940      14.591946
                         12       1   24gyz3             1.630940      11.302873
                         12       1   24gz4              1.630940       4.272084

                         13       1   10px               1.735533       2.839430
                         13       1   10py               1.735533       2.839430
                         13       1   10pz               1.735533       2.839430

                         14       1   21fx3              1.802244       5.540320
                         14       1   21fx2y             1.802244      12.388532
                         14       1   21fx2z             1.802244      12.388532
                         14       1   21fxy2             1.802244      12.388532
                         14       1   21fxyz             1.802244      21.457568
                         14       1   21fxz2             1.802244      12.388532
                         14       1   21fy3              1.802244       5.540320
                         14       1   21fy2z             1.802244      12.388532
                         14       1   21fyz2             1.802244      12.388532
                         14       1   21fz3              1.802244       5.540320

                         15       1   16dx2              1.884675       4.989687
                         15       1   16dxy              1.884675       8.642392
                         15       1   16dxz              1.884675       8.642392
                         15       1   16dy2              1.884675       4.989687
                         15       1   16dyz              1.884675       8.642392
                         15       1   16dz2              1.884675       4.989687

                         16       1   22fx3              4.628667      46.262635
                         16       1   22fx2y             4.628667     103.446396
                         16       1   22fx2z             4.628667     103.446396
                         16       1   22fxy2             4.628667     103.446396
                         16       1   22fxyz             4.628667     179.174415
                         16       1   22fxz2             4.628667     103.446396
                         16       1   22fy3              4.628667      46.262635
                         16       1   22fy2z             4.628667     103.446396
                         16       1   22fyz2             4.628667     103.446396
                         16       1   22fz3              4.628667      46.262635

                         17       1   11px               6.141859      13.782085
                         17       1   11py               6.141859      13.782085
                         17       1   11pz               6.141859      13.782085

                         18       1    4s                6.185715       2.795455

                         19       1   17dx2              6.374959      42.096391
                         19       1   17dxy              6.374959      72.913089
                         19       1   17dxz              6.374959      72.913089
                         19       1   17dy2              6.374959      42.096391
                         19       1   17dyz              6.374959      72.913089
                         19       1   17dz2              6.374959      42.096391

                         20       1   18dx2             20.130683     314.892154
                         20       1   18dxy             20.130683     545.409209
                         20       1   18dxz             20.130683     545.409209
                         20       1   18dy2             20.130683     314.892154
                         20       1   18dyz             20.130683     545.409209
                         20       1   18dz2             20.130683     314.892154

                         21       1   12px              24.768679      78.762346
                         21       1   12py              24.768679      78.762346
                         21       1   12pz              24.768679      78.762346

                         22       1    5s               25.097096       7.991489

                         23       1    6s               95.617665      21.792833

                         24       1   13px              97.150199     434.755122
                         24       1   13py              97.150199     434.755122
                         24       1   13pz              97.150199     434.755122

                         25       1    7s              351.422133      57.847144

       Atomic covalent radius [Angstrom]:                                  1.020

       Atomic van der Waals radius [Angstrom]:                             1.800

     The atoms of this atomic kind are PAW atoms (GAPW):
       Hard Gaussian function radius:                                      1.512
       Rho0 radius:                                                        1.512
       Maximum GTO radius used for PAW projector construction:            24.566

     GAPW Soft Basis Set                                 aug-TZVP-MOLOPT-ae_soft

       Number of orbital shell sets:                                           3
       Number of orbital shells:                                              19
       Number of primitive Cartesian functions:                                5
       Number of Cartesian basis functions:                                   83
       Number of spherical basis functions:                                   67
       Norm type:                                                              2

       Normalised Cartesian orbitals:

                        Set   Shell   Orbital            Exponent    Coefficient

                          1       1    1s                0.070000       0.000000
                                                         0.108835       0.013266
                                                         0.337374       0.012100
                                                         0.960895       0.130293
                                                         2.588982       1.264457

                          1       2    2s                0.070000       0.000000
                                                         0.108835       0.034021
                                                         0.337374       0.245140
                                                         0.960895       0.048241
                                                         2.588982      -0.118998

                          1       3    3s                0.070000       0.000000
                                                         0.108835       0.180243
                                                         0.337374      -0.135069
                                                         0.960895      -0.101980
                                                         2.588982      -0.138109

                          1       4    4s                0.070000       0.388827
                                                         0.108835      -0.520384
                                                         0.337374       0.118735
                                                         0.960895      -0.135046
                                                         2.588982       0.000000

                          1       5    2px               0.070000       0.000000
                                                         0.108835      -0.002937
                                                         0.337374      -0.012178
                                                         0.960895       0.076300
                                                         2.588982       4.614810
                          1       5    2py               0.070000       0.000000
                                                         0.108835      -0.002937
                                                         0.337374      -0.012178
                                                         0.960895       0.076300
                                                         2.588982       4.614810
                          1       5    2pz               0.070000       0.000000
                                                         0.108835      -0.002937
                                                         0.337374      -0.012178
                                                         0.960895       0.076300
                                                         2.588982       4.614810

                          1       6    3px               0.070000       0.000000
                                                         0.108835       0.007683
                                                         0.337374      -0.014106
                                                         0.960895       1.273560
                                                         2.588982      -0.221492
                          1       6    3py               0.070000       0.000000
                                                         0.108835       0.007683
                                                         0.337374      -0.014106
                                                         0.960895       1.273560
                                                         2.588982      -0.221492
                          1       6    3pz               0.070000       0.000000
                                                         0.108835       0.007683
                                                         0.337374      -0.014106
                                                         0.960895       1.273560
                                                         2.588982      -0.221492

                          1       7    4px               0.070000       0.000000
                                                         0.108835      -0.000876
                                                         0.337374       0.351508
                                                         0.960895       0.087271
                                                         2.588982       0.123593
                          1       7    4py               0.070000       0.000000
                                                         0.108835      -0.000876
                                                         0.337374       0.351508
                                                         0.960895       0.087271
                                                         2.588982       0.123593
                          1       7    4pz               0.070000       0.000000
                                                         0.108835      -0.000876
                                                         0.337374       0.351508
                                                         0.960895       0.087271
                                                         2.588982       0.123593

                          1       8    5px               0.070000       0.000000
                                                         0.108835       0.089997
                                                         0.337374       0.005487
                                                         0.960895      -0.121225
                                                         2.588982       0.184056
                          1       8    5py               0.070000       0.000000
                                                         0.108835       0.089997
                                                         0.337374       0.005487
                                                         0.960895      -0.121225
                                                         2.588982       0.184056
                          1       8    5pz               0.070000       0.000000
                                                         0.108835       0.089997
                                                         0.337374       0.005487
                                                         0.960895      -0.121225
                                                         2.588982       0.184056

                          1       9    6px               0.070000      -0.087079
                                                         0.108835       0.073795
                                                         0.337374       0.129559
                                                         0.960895       0.329085
                                                         2.588982       0.000000
                          1       9    6py               0.070000      -0.087079
                                                         0.108835       0.073795
                                                         0.337374       0.129559
                                                         0.960895       0.329085
                                                         2.588982       0.000000
                          1       9    6pz               0.070000      -0.087079
                                                         0.108835       0.073795
                                                         0.337374       0.129559
                                                         0.960895       0.329085
                                                         2.588982       0.000000

                          1      10    3dx2              0.070000       0.000000
                                                         0.108835      -0.002664
                                                         0.337374       0.000155
                                                         0.960895       0.110041
                                                         2.588982       7.758864
                          1      10    3dxy              0.070000       0.000000
                                                         0.108835      -0.004614
                                                         0.337374       0.000269
                                                         0.960895       0.190596
                                                         2.588982      13.438746
                          1      10    3dxz              0.070000       0.000000
                                                         0.108835      -0.004614
                                                         0.337374       0.000269
                                                         0.960895       0.190596
                                                         2.588982      13.438746
                          1      10    3dy2              0.070000       0.000000
                                                         0.108835      -0.002664
                                                         0.337374       0.000155
                                                         0.960895       0.110041
                                                         2.588982       7.758864
                          1      10    3dyz              0.070000       0.000000
                                                         0.108835      -0.004614
                                                         0.337374       0.000269
                                                         0.960895       0.190596
                                                         2.588982      13.438746
                          1      10    3dz2              0.070000       0.000000
                                                         0.108835      -0.002664
                                                         0.337374       0.000155
                                                         0.960895       0.110041
                                                         2.588982       7.758864

[...]
 *  O/|                                                                        *
 * /| |                                                                        *
 * / \                                                     bse_full_diag.F:392 *
 *******************************************************************************


 ===== Routine Calling Stack ===== 

            8 create_hermitian_form_of_ABBA

 *******************************************************************************
 *   ___                                                                       *
 *  /   \                                                                      *
 * [ABORT]                                                                     *
 *  \___/  Matrix (A-B) is not positive definite. Hermitian diagonalization of *
 *    |                      full ABBA matrix is ill-defined.                  *
 *  O/|                                                                        *
 * /| |                                                                        *
 * / \                                                     bse_full_diag.F:392 *
 *******************************************************************************


 ===== Routine Calling Stack ===== 

            8 create_hermitian_form_of_ABBA
            7 start_bse_calculation

 *******************************************************************************
 *   ___                                                                       *
 *  /   \                                                                      *
 * [ABORT]                                                                     *
 *  \___/  Matrix (A-B) is not positive definite. Hermitian diagonalization of *
 *    |                      full ABBA matrix is ill-defined.                  *
 *  O/|                                                                        *
 * /| |                                                                        *
 * / \                                                     bse_full_diag.F:392 *
 *******************************************************************************


 ===== Routine Calling Stack ===== 

            8 create_hermitian_form_of_ABBA
            7 start_bse_calculation
            6 rpa_num_int
            5 rpa_ri_compute_en
            4 mp2_gpw_main
            3 mp2_main
            2 qs_energies
            1 CP2K

 *******************************************************************************
 *   ___                                                                       *
 *  /   \                                                                      *
 * [ABORT]                                                                     *
 *  \___/  Matrix (A-B) is not positive definite. Hermitian diagonalization of *
 *    |                      full ABBA matrix is ill-defined.                  *
 *  O/|                                                                        *
 * /| |                                                                        *
 * / \                                                     bse_full_diag.F:392 *
 *******************************************************************************


 ===== Routine Calling Stack ===== 

            8 create_hermitian_form_of_ABBA
            7 start_bse_calculation
            6 rpa_num_int
            5 rpa_ri_compute_en
            4 mp2_gpw_main
            3 mp2_main
            2 qs_energies
            1 CP2K

 *******************************************************************************
 *   ___                                                                       *
 *  /   \                                                                      *
 * [ABORT]                                                                     *
 *  \___/  Matrix (A-B) is not positive definite. Hermitian diagonalization of *
 *    |                      full ABBA matrix is ill-defined.                  *
 *  O/|                                                                        *
 * /| |                                                                        *
 * / \                                                     bse_full_diag.F:392 *
 *******************************************************************************


 ===== Routine Calling Stack ===== 

            8 create_hermitian_form_of_ABBA
            7 start_bse_calculation
            6 rpa_num_int
            5 rpa_ri_compute_en
            4 mp2_gpw_main
            3 mp2_main
            2 qs_energies
            1 CP2K
            5 rpa_ri_compute_en
            4 mp2_gpw_main
            3 mp2_main
            2 qs_energies
            1 CP2K

 *******************************************************************************
 *   ___                                                                       *
 *  /   \                                                                      *
 * [ABORT]                                                                     *
 *  \___/  Matrix (A-B) is not positive definite. Hermitian diagonalization of *
 *    |                      full ABBA matrix is ill-defined.                  *
 *  O/|                                                                        *
 * /| |                                                                        *
 * / \                                                     bse_full_diag.F:392 *
 *******************************************************************************


 ===== Routine Calling Stack ===== 

            8 create_hermitian_form_of_ABBA
            7 start_bse_calculation
            6 rpa_num_int
            5 rpa_ri_compute_en
            4 mp2_gpw_main
            3 mp2_main
            2 qs_energies
            1 CP2K

 *******************************************************************************
 *   ___                                                                       *
 *  /   \                                                                      *
 * [ABORT]                                                                     *
 *  \___/  Matrix (A-B) is not positive definite. Hermitian diagonalization of *
 *    |                      full ABBA matrix is ill-defined.                  *
 *  O/|                                                                        *
 * /| |                                                                        *
 * / \                                                     bse_full_diag.F:392 *
 *******************************************************************************


 ===== Routine Calling Stack ===== 

            8 create_hermitian_form_of_ABBA
            7 start_bse_calculation
            6 rpa_num_int
            5 rpa_ri_compute_en
            4 mp2_gpw_main
            3 mp2_main
            2 qs_energies
            1 CP2K

 *******************************************************************************
 *   ___                                                                       *
 *  /   \                                                                      *
 * [ABORT]                                                                     *
 *  \___/  Matrix (A-B) is not positive definite. Hermitian diagonalization of *
 *    |                      full ABBA matrix is ill-defined.                  *
 *  O/|                                                                        *
 * /| |                                                                        *
 * / \                                                     bse_full_diag.F:392 *
 *******************************************************************************


 ===== Routine Calling Stack ===== 

            8 create_hermitian_form_of_ABBA
            7 start_bse_calculation
            6 rpa_num_int
            5 rpa_ri_compute_en
            4 mp2_gpw_main
            3 mp2_main
            2 qs_energies
            1 CP2K

 *******************************************************************************
 *   ___                                                                       *
 *  /   \                                                                      *
 * [ABORT]                                                                     *
 *  \___/  Matrix (A-B) is not positive definite. Hermitian diagonalization of *
 *    |                      full ABBA matrix is ill-defined.                  *
 *  O/|                                                                        *
 * /| |                                                                        *
 * / \                                                     bse_full_diag.F:392 *
 *******************************************************************************


 ===== Routine Calling Stack ===== 

            8 create_hermitian_form_of_ABBA
            7 start_bse_calculation
            6 rpa_num_int
            5 rpa_ri_compute_en
            4 mp2_gpw_main
            3 mp2_main
            2 qs_energies
            1 CP2K

 *******************************************************************************
 *   ___                                                                       *
 *  /   \                                                                      *
 * [ABORT]                                                                     *
 *  \___/  Matrix (A-B) is not positive definite. Hermitian diagonalization of *
 *    |                      full ABBA matrix is ill-defined.                  *
 *  O/|                                                                        *
 * /| |                                                                        *
 * / \                                                     bse_full_diag.F:392 *
 *******************************************************************************


 ===== Routine Calling Stack ===== 

            8 create_hermitian_form_of_ABBA
            7 start_bse_calculation
            6 rpa_num_int
            5 rpa_ri_compute_en
            4 mp2_gpw_main
            3 mp2_main
            2 qs_energies
            1 CP2K

 *******************************************************************************
 *   ___                                                                       *
 *  /   \                                                                      *
 * [ABORT]                                                                     *
 *  \___/  Matrix (A-B) is not positive definite. Hermitian diagonalization of *
 *    |                      full ABBA matrix is ill-defined.                  *
 *  O/|                                                                        *
 * /| |                                                                        *
 * / \                                                     bse_full_diag.F:392 *
 *******************************************************************************


 ===== Routine Calling Stack ===== 

            8 create_hermitian_form_of_ABBA
            7 start_bse_calculation
            6 rpa_num_int
            5 rpa_ri_compute_en
            4 mp2_gpw_main
            3 mp2_main
            2 qs_energies
            1 CP2K

 *******************************************************************************
 *   ___                                                                       *
 *  /   \                                                                      *
 * [ABORT]                                                                     *
 *  \___/  Matrix (A-B) is not positive definite. Hermitian diagonalization of *
 *    |                      full ABBA matrix is ill-defined.                  *
 *  O/|                                                                        *
 * /| |                                                                        *
 * / \                                                     bse_full_diag.F:392 *
 *******************************************************************************


 ===== Routine Calling Stack ===== 

            8 create_hermitian_form_of_ABBA
            7 start_bse_calculation
            6 rpa_num_int
            5 rpa_ri_compute_en
            4 mp2_gpw_main
            3 mp2_main
            2 qs_energies
            1 CP2K
            6 rpa_num_int
            5 rpa_ri_compute_en
            4 mp2_gpw_main
            3 mp2_main
            2 qs_energies
            1 CP2K

 *******************************************************************************
 *   ___                                                                       *
 *  /   \                                                                      *
 * [ABORT]                                                                     *
 *  \___/  Matrix (A-B) is not positive definite. Hermitian diagonalization of *
 *    |                      full ABBA matrix is ill-defined.                  *
 *  O/|                                                                        *
 * /| |                                                                        *
 * / \                                                     bse_full_diag.F:392 *
 *******************************************************************************


 ===== Routine Calling Stack ===== 

            8 create_hermitian_form_of_ABBA
            7 start_bse_calculation
            6 rpa_num_int
            5 rpa_ri_compute_en
            4 mp2_gpw_main
            3 mp2_main
            2 qs_energies
            1 CP2K
            8 create_hermitian_form_of_ABBA
            7 start_bse_calculation
            6 rpa_num_int
            5 rpa_ri_compute_en
            4 mp2_gpw_main
            3 mp2_main
            2 qs_energies
            1 CP2K

 *******************************************************************************
 *   ___                                                                       *
 *  /   \                                                                      *
 * [ABORT]                                                                     *
 *  \___/  Matrix (A-B) is not positive definite. Hermitian diagonalization of *
 *    |                      full ABBA matrix is ill-defined.                  *
 *  O/|                                                                        *
 * /| |                                                                        *
 * / \                                                     bse_full_diag.F:392 *
 *******************************************************************************


 ===== Routine Calling Stack ===== 

            8 create_hermitian_form_of_ABBA
            7 start_bse_calculation
            6 rpa_num_int
            5 rpa_ri_compute_en
            4 mp2_gpw_main
            3 mp2_main
            2 qs_energies
            1 CP2K

 *******************************************************************************
 *   ___                                                                       *
 *  /   \                                                                      *
 * [ABORT]                                                                     *
 *  \___/  Matrix (A-B) is not positive definite. Hermitian diagonalization of *
 *    |                      full ABBA matrix is ill-defined.                  *
 *  O/|                                                                        *
 * /| |                                                                        *
 * / \                                                     bse_full_diag.F:392 *
 *******************************************************************************


 ===== Routine Calling Stack ===== 

            8 create_hermitian_form_of_ABBA
            7 start_bse_calculation
            6 rpa_num_int
            5 rpa_ri_compute_en
            4 mp2_gpw_main
            3 mp2_main
            2 qs_energies
            1 CP2K
            1 CP2K

 ===== Routine Calling Stack ===== 

            8 create_hermitian_form_of_ABBA
            7 start_bse_calculation
            6 rpa_num_int
            5 rpa_ri_compute_en
            4 mp2_gpw_main
            3 mp2_main
            2 qs_energies
            1 CP2K
            7 start_bse_calculation
            6 rpa_num_int
            5 rpa_ri_compute_en
            4 mp2_gpw_main
            3 mp2_main
            2 qs_energies
            1 CP2K

 *******************************************************************************
 *   ___                                                                       *
 *  /   \                                                                      *
 * [ABORT]                                                                     *
 *  \___/  Matrix (A-B) is not positive definite. Hermitian diagonalization of *
 *    |                      full ABBA matrix is ill-defined.                  *
 *  O/|                                                                        *
 * /| |                                                                        *
 * / \                                                     bse_full_diag.F:392 *
 *******************************************************************************


 ===== Routine Calling Stack ===== 

            8 create_hermitian_form_of_ABBA
            7 start_bse_calculation
            6 rpa_num_int
            5 rpa_ri_compute_en
            4 mp2_gpw_main
            3 mp2_main
            2 qs_energies
            1 CP2K
            7 start_bse_calculation
            6 rpa_num_int
            5 rpa_ri_compute_en
            4 mp2_gpw_main
            3 mp2_main
            2 qs_energies
            1 CP2K

 *******************************************************************************
 *   ___                                                                       *
 *  /   \                                                                      *
 * [ABORT]                                                                     *
 *  \___/  Matrix (A-B) is not positive definite. Hermitian diagonalization of *
 *    |                      full ABBA matrix is ill-defined.                  *
 *  O/|                                                                        *
 * /| |                                                                        *
 * / \                                                     bse_full_diag.F:392 *
 *******************************************************************************


 ===== Routine Calling Stack ===== 

            8 create_hermitian_form_of_ABBA
            7 start_bse_calculation
            6 rpa_num_int
            5 rpa_ri_compute_en
            4 mp2_gpw_main
            3 mp2_main
            2 qs_energies
            1 CP2K
            6 rpa_num_int
            5 rpa_ri_compute_en
            4 mp2_gpw_main
            3 mp2_main
            2 qs_energies
            1 CP2K

 *******************************************************************************
 *   ___                                                                       *
 *  /   \                                                                      *
 * [ABORT]                                                                     *
 *  \___/  Matrix (A-B) is not positive definite. Hermitian diagonalization of *
 *    |                      full ABBA matrix is ill-defined.                  *
 *  O/|                                                                        *
 * /| |                                                                        *
 * / \                                                     bse_full_diag.F:392 *
 *******************************************************************************


 ===== Routine Calling Stack ===== 

            8 create_hermitian_form_of_ABBA
            7 start_bse_calculation
            6 rpa_num_int
            5 rpa_ri_compute_en
            4 mp2_gpw_main
            3 mp2_main
            2 qs_energies
            1 CP2K
