 DBCSR| CPU Multiplication driver                                           BLAS (U)
 DBCSR| Multrec recursion limit                                              512 (U)
 DBCSR| Multiplication stack size                                           1000 (D)
 DBCSR| Maximum elements for images                                    UNLIMITED (U)
 DBCSR| Multiplicative factor virtual images                                   1 (U)
 DBCSR| Use multiplication densification                                       T (D)
 DBCSR| Multiplication size stacks                                             3 (U)
 DBCSR| Use memory pool for CPU allocation                                     F (U)
 DBCSR| Number of 3D layers                                               SINGLE (U)
 DBCSR| Use MPI memory allocation                                              F (U)
 DBCSR| Use RMA algorithm                                                      F (U)
 DBCSR| Use Communication thread                                               T (U)
 DBCSR| Communication thread load                                             75 (D)
 DBCSR| MPI: My process id                                                     0
 DBCSR| MPI: Number of processes                                              24
 DBCSR| OMP: Current number of threads                                         4
 DBCSR| OMP: Max number of threads                                             4
 DBCSR| Split modifier for TAS multiplication algorithm                  1.0E+00 (U)


  **** **** ******  **  PROGRAM STARTED AT               2025-03-07 08:21:42.942
 ***** ** ***  *** **   PROGRAM STARTED ON                          i01r06c04s02
 **    ****   ******    PROGRAM STARTED BY                               di38fab
 ***** **    ** ** **   PROGRAM PROCESS ID                                955087
  **** **  *******  **  PROGRAM STARTED IN /hppfs/scratch/04/di38fab/05_MOL/W4-1
                                           1+ALK/li2/SZVSR

 CP2K| version string:                 CP2K version 2025.1 (Development Version)
 CP2K| source code revision number:                                  git:47877ba
 CP2K| cp2kflags: omp libint fftw3 libxc parallel scalapack max_contr=4         
 CP2K| is freely available from                            https://www.cp2k.org/
 CP2K| Program compiled at                          Thu Feb 20 16:00:34 CET 2025
 CP2K| Program compiled on                                               login04
 CP2K| Program compiled for                                        Supermuc-foss
 CP2K| Data directory path          /hppfs/work/pn36zo/di38fab/newcp2k/cp2k/data
 CP2K| Input file name                                                    GW.inp

 GLOBAL| Force Environment number                                              1
 GLOBAL| Basis set file name            /hppfs/scratch/04/di38fab/04_TMD/BASIS_A
 GLOBAL| Potential file name            /hppfs/work/pn36zo/di38fab/cp2k/data/ALL
 GLOBAL| MM Potential file name                                     MM_POTENTIAL
 GLOBAL| Coordinate file name                                      __STD_INPUT__
 GLOBAL| Method name                                                        CP2K
 GLOBAL| Project name                                                       MoS2
 GLOBAL| Run type                                                         ENERGY
 GLOBAL| FFT library                                                       FFTW3
 GLOBAL| Diagonalization library                                       ScaLAPACK
 GLOBAL| DGEMM library                                                      BLAS
 GLOBAL| Orthonormality check for eigenvectors                          DISABLED
 GLOBAL| Matrix multiplication library                                 ScaLAPACK
 GLOBAL| All-to-all communication in single precision                          F
 GLOBAL| FFTs using library dependent lengths                                  F
 GLOBAL| Grid backend                                                       AUTO
 GLOBAL| Global print level                                               MEDIUM
 GLOBAL| MPI I/O enabled                                                       T
 GLOBAL| Total number of message passing processes                            24
 GLOBAL| Number of threads for this process                                    4
 GLOBAL| This output is from process                                           0
 GLOBAL| OpenMP stack size per thread (OMP_STACKSIZE)                    default
 GLOBAL| CPU model name             Intel(R) Xeon(R) Platinum 8174 CPU @ 3.10GHz

 MEMORY| system memory details [Kb]
 MEMORY|                        rank 0           min           max       average
 MEMORY| MemTotal             98436660      98436660      98436664      98436662
 MEMORY| MemFree              83936768      83869328      83936768      83903033
 MEMORY| Buffers                     0             0             0             0
 MEMORY| Cached                2403492       2400608       2403492       2402050
 MEMORY| Slab                  1223628       1214664       1223628       1219146
 MEMORY| SReclaimable           268168        265900        268168        267034
 MEMORY| MemLikelyFree        86608428      86535836      86608428      86572117


 *** Fundamental physical constants (SI units) ***

 *** Literature: B. J. Mohr and B. N. Taylor,
 ***             CODATA recommended values of the fundamental physical
 ***             constants: 2006, Web Version 5.1
 ***             http://physics.nist.gov/constants

 Speed of light in vacuum [m/s]                             2.99792458000000E+08
 Magnetic constant or permeability of vacuum [N/A**2]       1.25663706143592E-06
 Electric constant or permittivity of vacuum [F/m]          8.85418781762039E-12
 Planck constant (h) [J*s]                                  6.62606896000000E-34
 Planck constant (h-bar) [J*s]                              1.05457162825177E-34
 Elementary charge [C]                                      1.60217648700000E-19
 Electron mass [kg]                                         9.10938215000000E-31
 Electron g factor [ ]                                     -2.00231930436220E+00
 Proton mass [kg]                                           1.67262163700000E-27
 Fine-structure constant                                    7.29735253760000E-03
 Rydberg constant [1/m]                                     1.09737315685270E+07
 Avogadro constant [1/mol]                                  6.02214179000000E+23
 Boltzmann constant [J/K]                                   1.38065040000000E-23
 Atomic mass unit [kg]                                      1.66053878200000E-27
 Bohr radius [m]                                            5.29177208590000E-11

 *** Conversion factors ***

 [u] -> [a.u.]                                              1.82288848426455E+03
 [Angstrom] -> [Bohr] = [a.u.]                              1.88972613288564E+00
 [a.u.] = [Bohr] -> [Angstrom]                              5.29177208590000E-01
 [a.u.] -> [s]                                              2.41888432650478E-17
 [a.u.] -> [fs]                                             2.41888432650478E-02
 [a.u.] -> [J]                                              4.35974393937059E-18
 [a.u.] -> [N]                                              8.23872205491840E-08
 [a.u.] -> [K]                                              3.15774647902944E+05
 [a.u.] -> [kJ/mol]                                         2.62549961709828E+03
 [a.u.] -> [kcal/mol]                                       6.27509468713739E+02
 [a.u.] -> [Pa]                                             2.94210107994716E+13
 [a.u.] -> [bar]                                            2.94210107994716E+08
 [a.u.] -> [atm]                                            2.90362800883016E+08
 [a.u.] -> [eV]                                             2.72113838565563E+01
 [a.u.] -> [Hz]                                             6.57968392072181E+15
 [a.u.] -> [1/cm] (wave numbers)                            2.19474631370540E+05
 [a.u./Bohr**2] -> [1/cm]                                   5.14048714338585E+03
 

 CELL_TOP| Volume [angstrom^3]:                                     27000.000000
 CELL_TOP| Vector a [angstrom    30.000     0.000     0.000   |a| =    30.000000
 CELL_TOP| Vector b [angstrom     0.000    30.000     0.000   |b| =    30.000000
 CELL_TOP| Vector c [angstrom     0.000     0.000    30.000   |c| =    30.000000
 CELL_TOP| Angle (b,c), alpha [degree]:                                90.000000
 CELL_TOP| Angle (a,c), beta  [degree]:                                90.000000
 CELL_TOP| Angle (a,b), gamma [degree]:                                90.000000
 CELL_TOP| Numerically orthorhombic:                                         YES
 CELL_TOP| Periodicity                                                      NONE

 GENERATE|  Preliminary Number of Bonds generated:                             0
 GENERATE|  Achieved consistency in connectivity generation.

 CELL| Volume [angstrom^3]:                                         27000.000000
 CELL| Vector a [angstrom]:      30.000     0.000     0.000   |a| =    30.000000
 CELL| Vector b [angstrom]:       0.000    30.000     0.000   |b| =    30.000000
 CELL| Vector c [angstrom]:       0.000     0.000    30.000   |c| =    30.000000
 CELL| Angle (b,c), alpha [degree]:                                    90.000000
 CELL| Angle (a,c), beta  [degree]:                                    90.000000
 CELL| Angle (a,b), gamma [degree]:                                    90.000000
 CELL| Numerically orthorhombic:                                             YES
 CELL| Periodicity                                                          NONE

 CELL_REF| Volume [angstrom^3]:                                     27000.000000
 CELL_REF| Vector a [angstrom    30.000     0.000     0.000   |a| =    30.000000
 CELL_REF| Vector b [angstrom     0.000    30.000     0.000   |b| =    30.000000
 CELL_REF| Vector c [angstrom     0.000     0.000    30.000   |c| =    30.000000
 CELL_REF| Angle (b,c), alpha [degree]:                                90.000000
 CELL_REF| Angle (a,c), beta  [degree]:                                90.000000
 CELL_REF| Angle (a,b), gamma [degree]:                                90.000000
 CELL_REF| Numerically orthorhombic:                                         YES
 CELL_REF| Periodicity                                                      NONE

 *******************************************************************************
 *******************************************************************************
 **                                                                           **
 **     #####                         ##              ##                      **
 **    ##   ##            ##          ##              ##                      **
 **   ##     ##                       ##            ######                    **
 **   ##     ##  ##   ##  ##   #####  ##  ##   ####   ##    #####    #####    **
 **   ##     ##  ##   ##  ##  ##      ## ##   ##      ##   ##   ##  ##   ##   **
 **   ##  ## ##  ##   ##  ##  ##      ####     ###    ##   ######   ######    **
 **    ##  ###   ##   ##  ##  ##      ## ##      ##   ##   ##       ##        **
 **     #######   #####   ##   #####  ##  ##  ####    ##    #####   ##        **
 **           ##                                                    ##        **
 **                                                                           **
 **                                                ... make the atoms dance   **
 **                                                                           **
 **            Copyright (C) by CP2K developers group (2000-2025)             **
 **                      J. Chem. Phys. 152, 194103 (2020)                    **
 **                                                                           **
 *******************************************************************************

 DFT| Spin restricted Kohn-Sham (RKS) calculation                            RKS
 DFT| Multiplicity                                                             1
 DFT| Number of spin states                                                    1
 DFT| Charge                                                                   0
 DFT| Self-interaction correction (SIC)                                       NO
 DFT| Cutoffs: density                                              1.000000E-10
 DFT|          gradient                                             1.000000E-10
 DFT|          tau                                                  1.000000E-10
 DFT|          cutoff_smoothing_range                               0.000000E+00
 DFT| XC density smoothing                                                  NONE
 DFT| XC derivatives                                                          PW

 FUNCTIONAL| PBE:
 FUNCTIONAL| J.P.Perdew, K.Burke, M.Ernzerhof, Phys. Rev. Letter, vol. 77, n 18,
 FUNCTIONAL|  pp. 3865-3868, (1996)sx=0.750sc=1.000{spin unpolarized}           


 QS| Method:                                                                GAPW
 QS| Density plane wave grid type                        NON-SPHERICAL FULLSPACE
 QS| Number of grid levels:                                                    4
 QS| Density cutoff [a.u.]:                                                250.0
 QS| Multi grid cutoff [a.u.]: 1) grid level                               250.0
 QS|                           2) grid level                                83.3
 QS|                           3) grid level                                27.8
 QS|                           4) grid level                                 9.3
 QS| Grid level progression factor:                                          3.0
 QS| Relative density cutoff [a.u.]:                                        50.0
 QS| Interaction thresholds: eps_pgf_orb:                                1.0E-12
 QS|                         eps_filter_matrix:                          0.0E+00
 QS|                         eps_core_charge:                            1.0E-14
 QS|                         eps_rho_gspace:                             1.0E-12
 QS|                         eps_rho_rspace:                             1.0E-12
 QS|                         eps_gvg_rspace:                             1.0E-06
 QS|                         eps_ppl:                                    1.0E-02
 QS|                         eps_ppnl:                                   1.0E-08
 QS| GAPW|      One center basis from orbital basis primitives
 QS| GAPW|                   eps_fit:                                    1.0E-04
 QS| GAPW|                   eps_iso:                                    1.0E-12
 QS| GAPW|                   eps_svd:                                    1.0E-08
 QS| GAPW|                   eps_cpc:                                    1.0E-12
 QS| GAPW|   atom-r-grid: quadrature:                                     GC_LOG
 QS| GAPW|      atom-s-grid:  max l :                                          4
 QS| GAPW|      max_l_rho0 :                                                   2


 ATOMIC KIND INFORMATION

  1. Atomic kind: li                                    Number of atoms:       2

     Orbital Basis Set                                         aug-SZV-MOLOPT-ae

       Number of orbital shell sets:                                           2
       Number of orbital shells:                                               6
       Number of primitive Cartesian functions:                               12
       Number of Cartesian basis functions:                                   15
       Number of spherical basis functions:                                   14
       Norm type:                                                              2

       Normalised Cartesian orbitals:

                        Set   Shell   Orbital            Exponent    Coefficient

                          1       1    1s                0.031084       0.012700
                                                         0.067814       0.056364
                                                         0.156146       0.044301
                                                         0.405851      -0.012244
                                                         1.305830      -0.040912
                                                         6.597564      -0.038883

                          1       2    2s                0.031084       0.052890
                                                         0.067814      -0.000168
                                                         0.156146      -0.000256
                                                         0.405851       0.000043
                                                         1.305830       0.000104
                                                         6.597564       0.000000

                          1       3    2px               0.031084       0.001892
                                                         0.067814       0.021007
                                                         0.156146       0.058488
                                                         0.405851       0.080295
                                                         1.305830       0.074973
                                                         6.597564       0.056666
                          1       3    2py               0.031084       0.001892
                                                         0.067814       0.021007
                                                         0.156146       0.058488
                                                         0.405851       0.080295
                                                         1.305830       0.074973
                                                         6.597564       0.056666
                          1       3    2pz               0.031084       0.001892
                                                         0.067814       0.021007
                                                         0.156146       0.058488
                                                         0.405851       0.080295
                                                         1.305830       0.074973
                                                         6.597564       0.056666

                          1       4    3px               0.031084      -0.000945
                                                         0.067814       0.051077
                                                         0.156146      -0.000811
                                                         0.405851       0.008960
                                                         1.305830       0.038611
                                                         6.597564       0.000000
                          1       4    3py               0.031084      -0.000945
                                                         0.067814       0.051077
                                                         0.156146      -0.000811
                                                         0.405851       0.008960
                                                         1.305830       0.038611
                                                         6.597564       0.000000
                          1       4    3pz               0.031084      -0.000945
                                                         0.067814       0.051077
                                                         0.156146      -0.000811
                                                         0.405851       0.008960
                                                         1.305830       0.038611
                                                         6.597564       0.000000

                          1       5    3dx2              0.031084       0.000452
                                                         0.067814       0.006113
                                                         0.156146       0.034198
                                                         0.405851       0.019071
                                                         1.305830       0.147410
                                                         6.597564       0.000000
                          1       5    3dxy              0.031084       0.000782
                                                         0.067814       0.010588
                                                         0.156146       0.059232
                                                         0.405851       0.033031
                                                         1.305830       0.255321
                                                         6.597564       0.000000
                          1       5    3dxz              0.031084       0.000782
                                                         0.067814       0.010588
                                                         0.156146       0.059232
                                                         0.405851       0.033031
                                                         1.305830       0.255321
                                                         6.597564       0.000000
                          1       5    3dy2              0.031084       0.000452
                                                         0.067814       0.006113
                                                         0.156146       0.034198
                                                         0.405851       0.019071
                                                         1.305830       0.147410
                                                         6.597564       0.000000
                          1       5    3dyz              0.031084       0.000782
                                                         0.067814       0.010588
                                                         0.156146       0.059232
                                                         0.405851       0.033031
                                                         1.305830       0.255321
                                                         6.597564       0.000000
                          1       5    3dz2              0.031084       0.000452
                                                         0.067814       0.006113
                                                         0.156146       0.034198
                                                         0.405851       0.019071
                                                         1.305830       0.147410
                                                         6.597564       0.000000

                          2       1    1s              167.175846       0.303638
                                                        30.651508       0.458287
                                                         8.575187       0.601924
                                                         2.945808       0.593848
                                                         1.143944       0.328337
                                                         0.471139       0.052824

     RI Auxiliary Basis Set             RI_aug-SZV-MOLOPT-ae_N_RI_104_s_p_d_f_g_

       Number of orbital shell sets:                                          20
       Number of orbital shells:                                              20
       Number of primitive Cartesian functions:                               20
       Number of Cartesian basis functions:                                  161
       Number of spherical basis functions:                                  104
       Norm type:                                                              2

       Normalised Cartesian orbitals:

                        Set   Shell   Orbital            Exponent    Coefficient

                          1       1   10dx2              0.100708       0.029633
                          1       1   10dxy              0.100708       0.051325
                          1       1   10dxz              0.100708       0.051325
                          1       1   10dy2              0.100708       0.029633
                          1       1   10dyz              0.100708       0.051325
                          1       1   10dz2              0.100708       0.029633

                          2       1   16gx4              0.111210       0.002651
                          2       1   16gx3y             0.111210       0.007013
                          2       1   16gx3z             0.111210       0.007013
                          2       1   16gx2y2            0.111210       0.009053
                          2       1   16gx2yz            0.111210       0.015681
                          2       1   16gx2z2            0.111210       0.009053
                          2       1   16gxy3             0.111210       0.007013
                          2       1   16gxy2z            0.111210       0.015681
                          2       1   16gxyz2            0.111210       0.015681
                          2       1   16gxz3             0.111210       0.007013
                          2       1   16gy4              0.111210       0.002651
                          2       1   16gy3z             0.111210       0.007013
                          2       1   16gy2z2            0.111210       0.009053
                          2       1   16gyz3             0.111210       0.007013
                          2       1   16gz4              0.111210       0.002651

                          3       1    6px               0.130688       0.112004
                          3       1    6py               0.130688       0.112004
                          3       1    6pz               0.130688       0.112004

                          4       1   14fx3              0.167053       0.026265
                          4       1   14fx2y             0.167053       0.058730
                          4       1   14fx2z             0.167053       0.058730
                          4       1   14fxy2             0.167053       0.058730
                          4       1   14fxyz             0.167053       0.101724
                          4       1   14fxz2             0.167053       0.058730
                          4       1   14fy3              0.167053       0.026265
                          4       1   14fy2z             0.167053       0.058730
                          4       1   14fyz2             0.167053       0.058730
                          4       1   14fz3              0.167053       0.026265

                          5       1    1s                0.237094       0.242159

                          6       1   11dx2              0.287429       0.185711
                          6       1   11dxy              0.287429       0.321661
                          6       1   11dxz              0.287429       0.321661
                          6       1   11dy2              0.287429       0.185711
                          6       1   11dyz              0.287429       0.321661
                          6       1   11dz2              0.287429       0.185711

                          7       1    7px               0.341534       0.372163
                          7       1    7py               0.341534       0.372163
                          7       1    7pz               0.341534       0.372163

                          8       1   18hx5              0.395239       0.036319
                          8       1   18hx4y             0.395239       0.108958
                          8       1   18hx4z             0.395239       0.108958
                          8       1   18hx3y2            0.395239       0.166436
                          8       1   18hx3yz            0.395239       0.288276
                          8       1   18hx3z2            0.395239       0.166436
                          8       1   18hx2y3            0.395239       0.166436
                          8       1   18hx2y2z           0.395239       0.372163
                          8       1   18hx2yz2           0.395239       0.372163
                          8       1   18hx2z3            0.395239       0.166436
                          8       1   18hxy4             0.395239       0.108958
                          8       1   18hxy3z            0.395239       0.288276
                          8       1   18hxy2z2           0.395239       0.372163
                          8       1   18hxyz3            0.395239       0.288276
                          8       1   18hxz4             0.395239       0.108958
                          8       1   18hy5              0.395239       0.036319
                          8       1   18hy4z             0.395239       0.108958
                          8       1   18hy3z2            0.395239       0.166436
                          8       1   18hy2z3            0.395239       0.166436
                          8       1   18hyz4             0.395239       0.108958
                          8       1   18hz5              0.395239       0.036319

                          9       1   19hx5              0.427250       0.046780
                          9       1   19hx4y             0.427250       0.140340
                          9       1   19hx4z             0.427250       0.140340
                          9       1   19hx3y2            0.427250       0.214373
                          9       1   19hx3yz            0.427250       0.371304
                          9       1   19hx3z2            0.427250       0.214373
                          9       1   19hx2y3            0.427250       0.214373
                          9       1   19hx2y2z           0.427250       0.479352
                          9       1   19hx2yz2           0.427250       0.479352
                          9       1   19hx2z3            0.427250       0.214373
                          9       1   19hxy4             0.427250       0.140340
                          9       1   19hxy3z            0.427250       0.371304
                          9       1   19hxy2z2           0.427250       0.479352
                          9       1   19hxyz3            0.427250       0.371304
                          9       1   19hxz4             0.427250       0.140340
                          9       1   19hy5              0.427250       0.046780
                          9       1   19hy4z             0.427250       0.140340
                          9       1   19hy3z2            0.427250       0.214373
                          9       1   19hy2z3            0.427250       0.214373
                          9       1   19hyz4             0.427250       0.140340
                          9       1   19hz5              0.427250       0.046780

                         10       1   17gx4              0.453614       0.126568
                         10       1   17gx3y             0.453614       0.334867
                         10       1   17gx3z             0.453614       0.334867
                         10       1   17gx2y2            0.453614       0.432311
                         10       1   17gx2yz            0.453614       0.748785
                         10       1   17gx2z2            0.453614       0.432311
                         10       1   17gxy3             0.453614       0.334867
                         10       1   17gxy2z            0.453614       0.748785
                         10       1   17gxyz2            0.453614       0.748785
                         10       1   17gxz3             0.453614       0.334867
                         10       1   17gy4              0.453614       0.126568
                         10       1   17gy3z             0.453614       0.334867
                         10       1   17gy2z2            0.453614       0.432311
                         10       1   17gyz3             0.453614       0.334867
                         10       1   17gz4              0.453614       0.126568

                         11       1   20ix6              0.734924       0.140957
                         11       1   20ix5y             0.734924       0.467502
                         11       1   20ix5z             0.734924       0.467502
                         11       1   20ix4y2            0.734924       0.809737
                         11       1   20ix4yz            0.734924       1.402506
                         11       1   20ix4z2            0.734924       0.809737
                         11       1   20ix3y3            0.734924       0.958094
                         11       1   20ix3y2z           0.734924       2.142364
                         11       1   20ix3yz2           0.734924       2.142364
                         11       1   20ix3z3            0.734924       0.958094
                         11       1   20ix2y4            0.734924       0.809737
                         11       1   20ix2y3z           0.734924       2.142364
                         11       1   20ix2y2z2          0.734924       2.765780
                         11       1   20ix2yz3           0.734924       2.142364
                         11       1   20ix2z4            0.734924       0.809737
                         11       1   20ixy5             0.734924       0.467502
                         11       1   20ixy4z            0.734924       1.402506
                         11       1   20ixy3z2           0.734924       2.142364
                         11       1   20ixy2z3           0.734924       2.142364
                         11       1   20ixyz4            0.734924       1.402506
                         11       1   20ixz5             0.734924       0.467502
                         11       1   20iy6              0.734924       0.140957
                         11       1   20iy5z             0.734924       0.467502
                         11       1   20iy4z2            0.734924       0.809737
                         11       1   20iy3z3            0.734924       0.958094
                         11       1   20iy2z4            0.734924       0.809737
                         11       1   20iyz5             0.734924       0.467502
                         11       1   20iz6              0.734924       0.140957

                         12       1   12dx2              0.816064       1.153259
                         12       1   12dxy              0.816064       1.997503
                         12       1   12dxz              0.816064       1.997503
                         12       1   12dy2              0.816064       1.153259
                         12       1   12dyz              0.816064       1.997503
                         12       1   12dz2              0.816064       1.153259

                         13       1    2s                0.920527       0.669788

                         14       1   15fx3              1.072909       1.724731
                         14       1   15fx2y             1.072909       3.856616
                         14       1   15fx2z             1.072909       3.856616
                         14       1   15fxy2             1.072909       3.856616
                         14       1   15fxyz             1.072909       6.679854
                         14       1   15fxz2             1.072909       3.856616
                         14       1   15fy3              1.072909       1.724731
                         14       1   15fy2z             1.072909       3.856616
                         14       1   15fyz2             1.072909       3.856616
                         14       1   15fz3              1.072909       1.724731

                         15       1    8px               1.335026       2.045513
                         15       1    8py               1.335026       2.045513
                         15       1    8pz               1.335026       2.045513

                         16       1   13dx2              2.328691       7.225292
                         16       1   13dxy              2.328691      12.514572
                         16       1   13dxz              2.328691      12.514572
                         16       1   13dy2              2.328691       7.225292
                         16       1   13dyz              2.328691      12.514572
                         16       1   13dz2              2.328691       7.225292

                         17       1    3s                2.633969       1.473561

                         18       1    9px               6.490610      14.767161
                         18       1    9py               6.490610      14.767161
                         18       1    9pz               6.490610      14.767161

                         19       1    4s                8.419142       3.522581

                         20       1    5s               37.612393      10.824512

       Atomic covalent radius [Angstrom]:                                  1.230

       Atomic van der Waals radius [Angstrom]:                             1.820

     The atoms of this atomic kind are PAW atoms (GAPW):
       Hard Gaussian function radius:                                      1.512
       Rho0 radius:                                                        1.512
       Maximum GTO radius used for PAW projector construction:            24.566

     GAPW Soft Basis Set                                  aug-SZV-MOLOPT-ae_soft

       Number of orbital shell sets:                                           2
       Number of orbital shells:                                               6
       Number of primitive Cartesian functions:                                8
       Number of Cartesian basis functions:                                   15
       Number of spherical basis functions:                                   14
       Norm type:                                                              2

       Normalised Cartesian orbitals:

                        Set   Shell   Orbital            Exponent    Coefficient

                          1       1    1s                0.031084       0.012700
                                                         0.067814       0.056364
                                                         0.156146       0.044301
                                                         0.405851      -0.012244
                                                         1.305830      -0.040912

                          1       2    2s                0.031084       0.052890
                                                         0.067814      -0.000168
                                                         0.156146      -0.000256
                                                         0.405851       0.000043
                                                         1.305830       0.000104

                          1       3    2px               0.031084       0.001892
                                                         0.067814       0.021007
                                                         0.156146       0.058488
                                                         0.405851       0.080295
                                                         1.305830       0.074973
                          1       3    2py               0.031084       0.001892
                                                         0.067814       0.021007
                                                         0.156146       0.058488
                                                         0.405851       0.080295
                                                         1.305830       0.074973
                          1       3    2pz               0.031084       0.001892
                                                         0.067814       0.021007
                                                         0.156146       0.058488
                                                         0.405851       0.080295
                                                         1.305830       0.074973

                          1       4    3px               0.031084      -0.000945
                                                         0.067814       0.051077
                                                         0.156146      -0.000811
                                                         0.405851       0.008960
                                                         1.305830       0.038611
                          1       4    3py               0.031084      -0.000945
                                                         0.067814       0.051077
                                                         0.156146      -0.000811
                                                         0.405851       0.008960
                                                         1.305830       0.038611
                          1       4    3pz               0.031084      -0.000945
                                                         0.067814       0.051077
                                                         0.156146      -0.000811
                                                         0.405851       0.008960
                                                         1.305830       0.038611

                          1       5    3dx2              0.031084       0.000452
                                                         0.067814       0.006113
                                                         0.156146       0.034198
                                                         0.405851       0.019071
                                                         1.305830       0.147410
                          1       5    3dxy              0.031084       0.000782
                                                         0.067814       0.010588
                                                         0.156146       0.059232
                                                         0.405851       0.033031
                                                         1.305830       0.255321
                          1       5    3dxz              0.031084       0.000782
                                                         0.067814       0.010588
                                                         0.156146       0.059232
                                                         0.405851       0.033031
                                                         1.305830       0.255321
                          1       5    3dy2              0.031084       0.000452
                                                         0.067814       0.006113
                                                         0.156146       0.034198
                                                         0.405851       0.019071
                                                         1.305830       0.147410
                          1       5    3dyz              0.031084       0.000782
                                                         0.067814       0.010588
                                                         0.156146       0.059232
                                                         0.405851       0.033031
                                                         1.305830       0.255321
                          1       5    3dz2              0.031084       0.000452
                                                         0.067814       0.006113
                                                         0.156146       0.034198
                                                         0.405851       0.019071
                                                         1.305830       0.147410

                          2       1    1s                2.945808       0.593848
                                                         1.143944       0.328337
                                                         0.471139       0.052824

     AE Potential information for                                            ALL

       Description:                                       All-electron potential
                                          Krack, Parrinello, PCCP 2, 2105 (2000)

       Gaussian exponent of the core charge distribution:               3.125000
       Electronic configuration (s p d ...):                           3   0   0


 MOLECULE KIND INFORMATION


 All atoms are their own molecule, skipping detailed information


 TOTAL NUMBERS AND MAXIMUM NUMBERS

  Total number of            - Atomic kinds:                                   1
                             - Atoms:                                          2
                             - Shell sets:                                     4
                             - Shells:                                        12
                             - Primitive Cartesian functions:                 24
                             - Cartesian basis functions:                     30
                             - Spherical basis functions:                     28

  Maximum angular momentum of the orbital basis functions:                     2


 MODULE QUICKSTEP: ATOMIC COORDINATES IN ANGSTROM

   Atom Kind Element         X             Y             Z       Z(eff)     Mass
      1    1 li    3     15.000000     15.000000     16.394718   3.0000   6.9410
      2    1 li    3     15.000000     15.000000     13.605282   3.0000   6.9410



 SCF PARAMETERS         Density guess:                                    ATOMIC
                        --------------------------------------------------------
                        max_scf:                                             500
                        max_scf_history:                                       0
                        max_diis:                                              4
                        --------------------------------------------------------
                        eps_scf:                                        1.00E-06
                        eps_scf_history:                                0.00E+00
                        eps_diis:                                       1.00E-01
                        eps_eigval:                                     1.00E-05
                        --------------------------------------------------------
                        level_shift [a.u.]:                             0.000000
                        added MOs                                        25    0
                        --------------------------------------------------------
                        Mixing method:                            BROYDEN_MIXING
                                                charge density mixing in g-space
                        --------------------------------------------------------
                        Smear method:                                FERMI_DIRAC
                        Electronic temperature [K]:                        300.0
                        Electronic temperature [a.u.]:                  9.50E-04
                        Accuracy threshold:                             1.00E-10
                        --------------------------------------------------------
                        No outer SCF

 PW_GRID| Information for grid number                                          1
 PW_GRID| Grid distributed over                                    24 processors
 PW_GRID| Real space group dimensions                                    24    1
 PW_GRID| the grid is blocked:                                                NO
 PW_GRID| Cutoff [a.u.]                                                    250.0
 PW_GRID| spherical cutoff:                                                   NO
 PW_GRID|   Bounds   1           -202     202                Points:         405
 PW_GRID|   Bounds   2           -202     202                Points:         405
 PW_GRID|   Bounds   3           -202     202                Points:         405
 PW_GRID| Volume element (a.u.^3)  0.2743E-02     Volume (a.u.^3)    182205.0337
 PW_GRID| Grid span                                                    FULLSPACE
 PW_GRID|   Distribution                         Average         Max         Min
 PW_GRID|   G-Vectors                          2767921.9     2768175     2767770
 PW_GRID|   G-Rays                                6834.4        6835        6834
 PW_GRID|   Real Space Points                  2767921.9     2788425     2624400

 PW_GRID| Information for grid number                                          2
 PW_GRID| Number of the reference grid                                         1
 PW_GRID| Grid distributed over                                    24 processors
 PW_GRID| Real space group dimensions                                    24    1
 PW_GRID| the grid is blocked:                                                NO
 PW_GRID| Cutoff [a.u.]                                                     83.3
 PW_GRID| spherical cutoff:                                                   NO
 PW_GRID|   Bounds   1           -120     119                Points:         240
 PW_GRID|   Bounds   2           -120     119                Points:         240
 PW_GRID|   Bounds   3           -120     119                Points:         240
 PW_GRID| Volume element (a.u.^3)  0.1318E-01     Volume (a.u.^3)    182205.0337
 PW_GRID| Grid span                                                    FULLSPACE
 PW_GRID|   Distribution                         Average         Max         Min
 PW_GRID|   G-Vectors                           576000.0      576240      575760
 PW_GRID|   G-Rays                                2400.0        2401        2399
 PW_GRID|   Real Space Points                   576000.0      576000      576000

 PW_GRID| Information for grid number                                          3
 PW_GRID| Number of the reference grid                                         1
 PW_GRID| Grid distributed over                                    24 processors
 PW_GRID| Real space group dimensions                                    24    1
 PW_GRID| the grid is blocked:                                                NO
 PW_GRID| Cutoff [a.u.]                                                     27.8
 PW_GRID| spherical cutoff:                                                   NO
 PW_GRID|   Bounds   1            -67      67                Points:         135
 PW_GRID|   Bounds   2            -67      67                Points:         135
 PW_GRID|   Bounds   3            -67      67                Points:         135
 PW_GRID| Volume element (a.u.^3)  0.7406E-01     Volume (a.u.^3)    182205.0337
 PW_GRID| Grid span                                                    FULLSPACE
 PW_GRID|   Distribution                         Average         Max         Min
 PW_GRID|   G-Vectors                           102515.6      102735      102330
 PW_GRID|   G-Rays                                 759.4         761         758
 PW_GRID|   Real Space Points                   102515.6      109350       91125

 PW_GRID| Information for grid number                                          4
 PW_GRID| Number of the reference grid                                         1
 PW_GRID| Grid distributed over                                    24 processors
 PW_GRID| Real space group dimensions                                    24    1
 PW_GRID| the grid is blocked:                                                NO
 PW_GRID| Cutoff [a.u.]                                                      9.3
 PW_GRID| spherical cutoff:                                                   NO
 PW_GRID|   Bounds   1            -40      39                Points:          80
 PW_GRID|   Bounds   2            -40      39                Points:          80
 PW_GRID|   Bounds   3            -40      39                Points:          80
 PW_GRID| Volume element (a.u.^3)  0.3559         Volume (a.u.^3)    182205.0337
 PW_GRID| Grid span                                                    FULLSPACE
 PW_GRID|   Distribution                         Average         Max         Min
 PW_GRID|   G-Vectors                            21333.3       21360       21280
 PW_GRID|   G-Rays                                 266.7         267         266
 PW_GRID|   Real Space Points                    21333.3       25600       19200

 POISSON| Solver                                                         WAVELET
 POISSON| Wavelet| Scaling function                                           40
 POISSON| Periodicity                                                       NONE

 RS_GRID| Information for grid number                                          1
 RS_GRID|   Bounds   1           -202     202                Points:         405
 RS_GRID|   Bounds   2           -202     202                Points:         405
 RS_GRID|   Bounds   3           -202     202                Points:         405
 RS_GRID| Real space distribution over                                  4 groups
 RS_GRID| Real space distribution along direction                              2
 RS_GRID| Border size                                                         35
 RS_GRID| Real space distribution over                                  6 groups
 RS_GRID| Real space distribution along direction                              3
 RS_GRID| Border size                                                         35
 RS_GRID|   Distribution                         Average         Max         Min
 RS_GRID|   Planes                                 171.2         172         171
 RS_GRID|   Distribution                         Average         Max         Min
 RS_GRID|   Planes                                 137.5         138         137

 RS_GRID| Information for grid number                                          2
 RS_GRID|   Bounds   1           -120     119                Points:         240
 RS_GRID|   Bounds   2           -120     119                Points:         240
 RS_GRID|   Bounds   3           -120     119                Points:         240
 RS_GRID| Real space distribution over                                  4 groups
 RS_GRID| Real space distribution along direction                              2
 RS_GRID| Border size                                                         37
 RS_GRID| Real space distribution over                                  6 groups
 RS_GRID| Real space distribution along direction                              3
 RS_GRID| Border size                                                         37
 RS_GRID|   Distribution                         Average         Max         Min
 RS_GRID|   Planes                                 134.0         134         134
 RS_GRID|   Distribution                         Average         Max         Min
 RS_GRID|   Planes                                 114.0         114         114

 RS_GRID| Information for grid number                                          3
 RS_GRID|   Bounds   1            -67      67                Points:         135
 RS_GRID|   Bounds   2            -67      67                Points:         135
 RS_GRID|   Bounds   3            -67      67                Points:         135
 RS_GRID| Real space fully replicated
 RS_GRID| Group size                                                           1

 RS_GRID| Information for grid number                                          4
 RS_GRID|   Bounds   1            -40      39                Points:          80
 RS_GRID|   Bounds   2            -40      39                Points:          80
 RS_GRID|   Bounds   3            -40      39                Points:          80
 RS_GRID| Real space fully replicated
 RS_GRID| Group size                                                           1

  HFX_INFO| Replica ID:                                                        1
  HFX_INFO| FRACTION:                                               0.2500000000
  HFX_INFO| Interaction Potential:                                       COULOMB
  HFX_INFO| EPS_SCHWARZ:                                                 1.0E-10
  HFX_INFO| EPS_SCHWARZ_FORCES                                           1.0E-08
  HFX_INFO| EPS_STORAGE_SCALING:                                         1.0E+00
  HFX_INFO| NBINS:                                                            64
  HFX_INFO| BLOCK_SIZE:                                                        1
  HFX_INFO| Number of periodic shells considered:                           NONE
  HFX_INFO| Number of periodic cells considered:                            NONE

 
 RI-RPA| using GPW style
 

 OVERLAP MATRIX CONDITION NUMBER
 1-Norm Condition Number (Estimate)
   CN : |A|*|A^-1|:  4.402E+000 *  1.132E+002   = 4.983E+002  Log(1-CN):  2.6975
 1-Norm and 2-Norm Condition Numbers using Diagonalization
   CN : |A|*|A^-1|:  4.402E+000 *  1.132E+002   = 4.983E+002  Log(1-CN):  2.6975
   CN : max/min ev:  3.759E+000 /  1.363E-002   = 2.757E+002  Log(2-CN):  2.4404

 Number of electrons:                                                          6
 Number of occupied orbitals:                                                  3
 Number of molecular orbitals:                                                28

 Number of orbital functions:                                                 28
 Number of independent orbital functions:                                     28

 Extrapolation method: initial_guess

 Atomic guess: The first density matrix is obtained in terms of atomic orbitals
               and electronic configurations assigned to each atomic kind

 Guess for atomic kind: li

 Electronic structure
    Total number of core electrons                                          0.00
    Total number of valence electrons                                       3.00
    Total number of electrons                                               3.00
    Multiplicity                                                   not specified
    S      2.00  1.00


 *******************************************************************************
                  Iteration          Convergence                     Energy [au]
 *******************************************************************************
                          1        0.202411E-01                  -7.312657268297
                          2        0.138544E-02                  -7.312790799951
                          3        0.998413E-04                  -7.312791595344
                          4        0.135314E-06                  -7.312791602719

 Energy components [Hartree]           Total Energy ::           -7.312791602719
                                        Band Energy ::           -3.804143623497
                                     Kinetic Energy ::            7.228768871590
                                   Potential Energy ::          -14.541560474309
                                      Virial (-V/T) ::            2.011623380498
                                        Core Energy ::           -9.676221740042
                                          XC Energy ::           -1.669700551228
                                     Coulomb Energy ::            4.033130688551

 Orbital energies  State     L     Occupation   Energy[a.u.]          Energy[eV]

                       1     0          2.000      -1.849901          -50.338356
                       2     0          1.000      -0.104342           -2.839301


 Total Electron Density at R=0:                                        10.832580
 Re-scaling the density matrix to get the right number of electrons
                  # Electrons              Trace(P)               Scaling factor
                            6                 6.000                        1.000


 SCF WAVEFUNCTION OPTIMIZATION

  Step     Update method      Time    Convergence         Total energy    Change
  ------------------------------------------------------------------------------

  HFX_MEM_INFO| Est. max. program size before HFX [MiB]:                    2157
  HFX_MEM_INFO| Number of cart. primitive ERI's calculated:            106279243
  HFX_MEM_INFO| Number of sph. ERI's calculated:                          230496
  HFX_MEM_INFO| Number of sph. ERI's stored in-core:                      230496
  HFX_MEM_INFO| Number of sph. ERI's stored on disk:                           0
  HFX_MEM_INFO| Number of sph. ERI's calculated on the fly:                    0
  HFX_MEM_INFO| Total memory consumption ERI's RAM [MiB]:                      2
  HFX_MEM_INFO| Whereof max-vals [MiB]:                                        1
  HFX_MEM_INFO| Total compression factor ERI's RAM:                         1.14
  HFX_MEM_INFO| Total memory consumption ERI's disk [MiB]:                     0
  HFX_MEM_INFO| Total compression factor ERI's disk:                        0.00
  HFX_MEM_INFO| Size of density/Fock matrix [MiB]:                             0
  HFX_MEM_INFO| Size of buffers [MiB]:                                         0
  HFX_MEM_INFO| Est. max. program size after HFX  [MiB]:                    2666

     1 NoMix/Diag. 0.10E+00    7.4     0.29420585       -14.8910921870 -1.49E+01
     2 Broy./Diag. 0.10E+00    4.8     0.04585398       -14.8481482792  4.29E-02
     3 Broy./Diag. 0.10E+00    4.8     0.02070407       -14.8148806430  3.33E-02
     4 Broy./Diag. 0.10E+00    4.9     0.00587112       -14.8015311834  1.33E-02
     5 Broy./Diag. 0.10E+00    5.1     0.00869849       -14.8085912454 -7.06E-03
     6 Broy./Diag. 0.10E+00    5.1     0.00163979       -14.8141898635 -5.60E-03
     7 Broy./Diag. 0.10E+00    5.2     0.00449490       -14.8123819918  1.81E-03
     8 Broy./Diag. 0.10E+00    5.4     0.00238366       -14.8082547200  4.13E-03
     9 Broy./Diag. 0.10E+00    5.5     0.00164538       -14.8095360327 -1.28E-03
    10 Broy./Diag. 0.10E+00    5.6     0.04163168       -14.8520942445 -4.26E-02
    11 Broy./Diag. 0.10E+00    5.5     0.08011595       -14.9128280999 -6.07E-02
    12 Broy./Diag. 0.10E+00    5.5     0.03944762       -14.9471888040 -3.44E-02
    13 Broy./Diag. 0.10E+00    5.4     0.03327797       -14.9353773667  1.18E-02
    14 Broy./Diag. 0.10E+00    5.4     0.01181395       -14.9250484934  1.03E-02
    15 Broy./Diag. 0.10E+00    5.3     0.00992775       -14.9287563528 -3.71E-03
    16 Broy./Diag. 0.10E+00    5.5     0.00189856       -14.9304018527 -1.65E-03
    17 Broy./Diag. 0.10E+00    5.4     0.00096034       -14.9282450459  2.16E-03
    18 Broy./Diag. 0.10E+00    5.4     0.00020887       -14.9275306913  7.14E-04
    19 Broy./Diag. 0.10E+00    5.3     0.00596469       -14.9211865580  6.34E-03
    20 Broy./Diag. 0.10E+00    5.3     0.00337530       -14.9202112232  9.75E-04
    21 Broy./Diag. 0.10E+00    5.4     0.00687893       -14.9232005909 -2.99E-03
    22 Broy./Diag. 0.10E+00    5.5     0.00098969       -14.9252257180 -2.03E-03
    23 Broy./Diag. 0.10E+00    5.5     0.00609746       -14.9238756556  1.35E-03
    24 Broy./Diag. 0.10E+00    5.5     0.00213819       -14.9230855692  7.90E-04
    25 Broy./Diag. 0.10E+00    5.5     0.00177560       -14.9243089056 -1.22E-03
    26 Broy./Diag. 0.10E+00    5.5     0.00072700       -14.9248710122 -5.62E-04
    27 Broy./Diag. 0.10E+00    5.5     0.00079320       -14.9246900074  1.81E-04
    28 Broy./Diag. 0.10E+00    5.4     0.00025838       -14.9243636918  3.26E-04
    29 Broy./Diag. 0.10E+00    5.5     0.00014159       -14.9238914025  4.72E-04
    30 Broy./Diag. 0.10E+00    5.4     0.00017627       -14.9236105652  2.81E-04
    31 Broy./Diag. 0.10E+00    5.3     0.00083209       -14.9235548068  5.58E-05
    32 Broy./Diag. 0.10E+00    5.4     0.00007792       -14.9237805977 -2.26E-04
    33 Broy./Diag. 0.10E+00    5.4     0.00091485       -14.9234728038  3.08E-04
    34 Broy./Diag. 0.10E+00    5.3     0.00058610       -14.9234428575  2.99E-05
    35 Broy./Diag. 0.10E+00    5.4     0.00040480       -14.9237298730 -2.87E-04
    36 Broy./Diag. 0.10E+00    5.6     0.00012991       -14.9237340425 -4.17E-06
    37 Broy./Diag. 0.10E+00    5.5     0.00017858       -14.9235761773  1.58E-04
    38 Broy./Diag. 0.10E+00    5.5     0.00015063       -14.9235728723  3.30E-06
    39 Broy./Diag. 0.10E+00    5.6     0.00018640       -14.9237163285 -1.43E-04
    40 Broy./Diag. 0.10E+00    5.8     0.00015313       -14.9237482985 -3.20E-05
    41 Broy./Diag. 0.10E+00    5.6     0.00010619       -14.9236722809  7.60E-05
    42 Broy./Diag. 0.10E+00    5.6     0.00013498       -14.9236413495  3.09E-05
    43 Broy./Diag. 0.10E+00    5.6     0.00005184       -14.9235904517  5.09E-05
    44 Broy./Diag. 0.10E+00    5.4     0.00018632       -14.9234781632  1.12E-04
    45 Broy./Diag. 0.10E+00    5.4     0.00002001       -14.9234066618  7.15E-05
    46 Broy./Diag. 0.10E+00    5.4     0.00005839       -14.9234134296 -6.77E-06
    47 Broy./Diag. 0.10E+00    5.3     0.00005487       -14.9234121632  1.27E-06
    48 Broy./Diag. 0.10E+00    5.4     0.00005720       -14.9233780812  3.41E-05
    49 Broy./Diag. 0.10E+00    5.4     0.00005535       -14.9233721024  5.98E-06
    50 Broy./Diag. 0.10E+00    5.4     0.00003126       -14.9233655537  6.55E-06
    51 Broy./Diag. 0.10E+00    5.5     0.00007369       -14.9233252495  4.03E-05
    52 Broy./Diag. 0.10E+00    5.6     0.00000525       -14.9233129642  1.23E-05
    53 Broy./Diag. 0.10E+00    5.6     0.00002211       -14.9233393111 -2.63E-05
    54 Broy./Diag. 0.10E+00    5.6     0.00003532       -14.9233339094  5.40E-06
    55 Broy./Diag. 0.10E+00    5.5     0.00000544       -14.9233240645  9.84E-06
    56 Broy./Diag. 0.10E+00    5.5     0.00002927       -14.9233281778 -4.11E-06
    57 Broy./Diag. 0.10E+00    5.4     0.00001429       -14.9233281106  6.72E-08
    58 Broy./Diag. 0.10E+00    5.4     0.00001906       -14.9233163775  1.17E-05
    59 Broy./Diag. 0.10E+00    5.5     0.00000522       -14.9233141626  2.21E-06
    60 Broy./Diag. 0.10E+00    5.6     0.00000135       -14.9233177805 -3.62E-06
    61 Broy./Diag. 0.10E+00    5.3     0.00000442       -14.9233194321 -1.65E-06
    62 Broy./Diag. 0.10E+00    5.4     0.00000905       -14.9233240457 -4.61E-06
    63 Broy./Diag. 0.10E+00    5.3     0.00000085       -14.9233290027 -4.96E-06

  *** SCF run converged in    63 steps ***


  Electronic density on regular grids:         -4.9687496394        1.0312503606
  Core density on regular grids:                6.0000000000        0.0000000000
  Hard and soft densities (Lebedev):           -6.1887790105       -5.1575274879
  Total Rho_soft + Rho1_hard - Rho1_soft       -6.0000011619
  Total charge density (r-space):              -0.0000011619
  Total Rho_soft + Rho0_soft (g-space):        -0.0000012114

  Overlap energy of the core charge distribution:               0.00000000000000
  Self energy of the core charge distribution:                -12.69426562982452
  Core Hamiltonian energy:                                      0.53731077310484
  Hartree energy:                                               3.07275502914280
  Exchange-correlation energy:                                 -1.67960936817300
  Hartree-Fock Exchange energy:                                -0.89022012207245

  GAPW| Exc from hard and soft atomic rho1:                    -1.08039293999671
  GAPW| local Eh = 1 center integrals:                         -2.18890674489811
  Electronic entropic energy:                                  -0.00000000000000
  Fermi energy:                                                -0.08306117783187

  Total energy:                                               -14.92332900271715

 !-----------------------------------------------------------------------------!
                     Mulliken Population Analysis

 #  Atom  Element  Kind  Atomic population                           Net charge
       1     li       1          3.000000                              0.000000
       2     li       1          3.000000                             -0.000000
 # Total charge                              6.000000                  0.000000

 !-----------------------------------------------------------------------------!

 !-----------------------------------------------------------------------------!
                           Hirshfeld Charges

  #Atom  Element  Kind  Ref Charge     Population                    Net charge
      1       li     1       3.000          2.993                         0.007
      2       li     1       3.000          2.993                         0.007

  Total Charge                                                            0.013
 !-----------------------------------------------------------------------------!


 RI-RPA section
 --------------

  Used number of processes per group:                                          1
  Maximum allowed memory usage per MPI process:                      1024.00 MiB
  RI_INFO| Cholesky decomposition group size:                                  2
  RI_INFO| Number of groups for auxiliary basis functions                     24

  RI_INFO| RI metric:                                                    COULOMB
  RI_INFO| Number of auxiliary basis functions:                              208
  GENERAL_INFO| Number of basis functions:                                    28
  GENERAL_INFO| Number of occupied orbitals:                                   3
  GENERAL_INFO| Number of virtual orbitals:                                   25
  RI_INFO| Total memory for (ia|K) integrals:                           0.12 MiB
  RI_INFO| Total memory for G0W0-(nm|K) integrals:                      1.24 MiB
  RI_INFO| Total memory for (ij|K) integrals:                           0.01 MiB
  RI_INFO| Total memory for (ab|K) integrals:                           0.99 MiB
  RI_INFO| Group size for frequency integration:                              24
  INTEG_INFO| Clenshaw-Curtius quadrature
  INTEG_INFO| Number of integration points:                                  100
  INTEG_INFO| Number of integration points per RPA group:                    100
  MATRIX_INFO| Number row processes:                                           6
  MATRIX_INFO| Number column processes:                                        4
  MATRIX_INFO| Row block size:                                                17
  MATRIX_INFO| Column block size:                                              9
  INTEG_INFO| Scaling parameter:                                         0.20000
  INTEG_INFO| Started with Integration point   1 of 100
  INTEG_INFO| Started with Integration point   2 of 100
  INTEG_INFO| Started with Integration point   3 of 100
  INTEG_INFO| Started with Integration point   4 of 100
  INTEG_INFO| Started with Integration point   5 of 100
  INTEG_INFO| Started with Integration point   6 of 100
  INTEG_INFO| Started with Integration point   7 of 100
  INTEG_INFO| Started with Integration point   8 of 100
  INTEG_INFO| Started with Integration point   9 of 100
  INTEG_INFO| Started with Integration point  10 of 100
  INTEG_INFO| Started with Integration point  11 of 100
  INTEG_INFO| Started with Integration point  12 of 100
  INTEG_INFO| Started with Integration point  13 of 100
  INTEG_INFO| Started with Integration point  14 of 100
  INTEG_INFO| Started with Integration point  15 of 100
  INTEG_INFO| Started with Integration point  16 of 100
  INTEG_INFO| Started with Integration point  17 of 100
  INTEG_INFO| Started with Integration point  18 of 100
  INTEG_INFO| Started with Integration point  19 of 100
  INTEG_INFO| Started with Integration point  20 of 100
  INTEG_INFO| Started with Integration point  21 of 100
  INTEG_INFO| Started with Integration point  22 of 100
  INTEG_INFO| Started with Integration point  23 of 100
  INTEG_INFO| Started with Integration point  24 of 100
  INTEG_INFO| Started with Integration point  25 of 100
  INTEG_INFO| Started with Integration point  26 of 100
  INTEG_INFO| Started with Integration point  27 of 100
  INTEG_INFO| Started with Integration point  28 of 100
  INTEG_INFO| Started with Integration point  29 of 100
  INTEG_INFO| Started with Integration point  30 of 100
  INTEG_INFO| Started with Integration point  31 of 100
  INTEG_INFO| Started with Integration point  32 of 100
  INTEG_INFO| Started with Integration point  33 of 100
  INTEG_INFO| Started with Integration point  34 of 100
  INTEG_INFO| Started with Integration point  35 of 100
  INTEG_INFO| Started with Integration point  36 of 100
  INTEG_INFO| Started with Integration point  37 of 100
  INTEG_INFO| Started with Integration point  38 of 100
  INTEG_INFO| Started with Integration point  39 of 100
  INTEG_INFO| Started with Integration point  40 of 100
  INTEG_INFO| Started with Integration point  41 of 100
  INTEG_INFO| Started with Integration point  42 of 100
  INTEG_INFO| Started with Integration point  43 of 100
  INTEG_INFO| Started with Integration point  44 of 100
  INTEG_INFO| Started with Integration point  45 of 100
  INTEG_INFO| Started with Integration point  46 of 100
  INTEG_INFO| Started with Integration point  47 of 100
  INTEG_INFO| Started with Integration point  48 of 100
  INTEG_INFO| Started with Integration point  49 of 100
  INTEG_INFO| Started with Integration point  50 of 100
  INTEG_INFO| Started with Integration point  51 of 100
  INTEG_INFO| Started with Integration point  52 of 100
  INTEG_INFO| Started with Integration point  53 of 100
  INTEG_INFO| Started with Integration point  54 of 100
  INTEG_INFO| Started with Integration point  55 of 100
  INTEG_INFO| Started with Integration point  56 of 100
  INTEG_INFO| Started with Integration point  57 of 100
  INTEG_INFO| Started with Integration point  58 of 100
  INTEG_INFO| Started with Integration point  59 of 100
  INTEG_INFO| Started with Integration point  60 of 100
  INTEG_INFO| Started with Integration point  61 of 100
  INTEG_INFO| Started with Integration point  62 of 100
  INTEG_INFO| Started with Integration point  63 of 100
  INTEG_INFO| Started with Integration point  64 of 100
  INTEG_INFO| Started with Integration point  65 of 100
  INTEG_INFO| Started with Integration point  66 of 100
  INTEG_INFO| Started with Integration point  67 of 100
  INTEG_INFO| Started with Integration point  68 of 100
  INTEG_INFO| Started with Integration point  69 of 100
  INTEG_INFO| Started with Integration point  70 of 100
  INTEG_INFO| Started with Integration point  71 of 100
  INTEG_INFO| Started with Integration point  72 of 100
  INTEG_INFO| Started with Integration point  73 of 100
  INTEG_INFO| Started with Integration point  74 of 100
  INTEG_INFO| Started with Integration point  75 of 100
  INTEG_INFO| Started with Integration point  76 of 100
  INTEG_INFO| Started with Integration point  77 of 100
  INTEG_INFO| Started with Integration point  78 of 100
  INTEG_INFO| Started with Integration point  79 of 100
  INTEG_INFO| Started with Integration point  80 of 100
  INTEG_INFO| Started with Integration point  81 of 100
  INTEG_INFO| Started with Integration point  82 of 100
  INTEG_INFO| Started with Integration point  83 of 100
  INTEG_INFO| Started with Integration point  84 of 100
  INTEG_INFO| Started with Integration point  85 of 100
  INTEG_INFO| Started with Integration point  86 of 100
  INTEG_INFO| Started with Integration point  87 of 100
  INTEG_INFO| Started with Integration point  88 of 100
  INTEG_INFO| Started with Integration point  89 of 100
  INTEG_INFO| Started with Integration point  90 of 100
  INTEG_INFO| Started with Integration point  91 of 100
  INTEG_INFO| Started with Integration point  92 of 100
  INTEG_INFO| Started with Integration point  93 of 100
  INTEG_INFO| Started with Integration point  94 of 100
  INTEG_INFO| Started with Integration point  95 of 100
  INTEG_INFO| Started with Integration point  96 of 100
  INTEG_INFO| Started with Integration point  97 of 100
  INTEG_INFO| Started with Integration point  98 of 100
  INTEG_INFO| Started with Integration point  99 of 100
  INTEG_INFO| Started with Integration point 100 of 100
  PERFORMANCE| Average DGEMM flop rate (Gflops / MPI rank):                 0.27
  
  
  ******************************************************************************
  **                                                                          **
  **                        GW QUASIPARTICLE ENERGIES                         **
  **                                                                          **
  ******************************************************************************
   
   
  The GW quasiparticle energies are calculated according to: 
   
                      E_GW = E_SCF + Sigc(E_GW) + Sigx - vxc 
   
  Upper equation is solved self-consistently for E_GW, see Eq. (12) in J. Phys.
  Chem. Lett. 9, 306 (2018), doi: 10.1021/acs.jpclett.7b02740
  
  
  ------------
  G0W0 results
  ------------
   
  Molecular orbital   E_SCF (eV)       Sigc (eV)   Sigx-vxc (eV)       E_GW (eV)
     1 ( occ )          -68.5196          7.7307         -9.5980        -70.3868
     2 ( occ )          -60.2581          5.1517        -10.3254        -65.4318
     3 ( occ )           -9.9869          0.1948         -2.2746        -12.0667
     4 ( vir )           -1.8958         -0.4195          1.8625         -0.4528
     5 ( vir )           -1.0344         -0.5880          2.2706          0.6482
     6 ( vir )           -1.0344         -0.5880          2.2706          0.6482
     7 ( vir )           -0.1206         -0.5442          1.8925          1.2276
     8 ( vir )            0.1007         -0.1191          1.4020          1.3837
     9 ( vir )            0.2872         -0.9134          3.1536          2.5274
    10 ( vir )            0.3217         -0.7098          2.7714          2.3833
    11 ( vir )            0.4600         -0.6575          3.0555          2.8580
    12 ( vir )            0.4600         -0.6575          3.0555          2.8580
    13 ( vir )            0.6315         -1.2413          3.6797          3.0699
    14 ( vir )            0.6937         -1.3030          3.8513          3.2420
    15 ( vir )            0.6937         -1.3030          3.8513          3.2420
    16 ( vir )            1.2734         -1.7506          4.3520          3.8748
    17 ( vir )            2.1037         -1.6367          3.4613          3.9284
    18 ( vir )            2.1037         -1.6367          3.4613          3.9284
    19 ( vir )            4.2627         -0.7383          2.7731          6.2974
    20 ( vir )            4.2627         -0.7384          2.7731          6.2974
    21 ( vir )            5.2714         -1.2383          2.5764          6.6094
    22 ( vir )            6.0059         -0.9381          2.8715          7.9394
    23 ( vir )            6.0059         -0.9381          2.8715          7.9394
    24 ( vir )            6.5861         -1.4929          2.8737          7.9669
    25 ( vir )            6.6170         -1.5290          2.7486          7.8365
    26 ( vir )            6.6170         -1.5290          2.7486          7.8365
    27 ( vir )            7.4750         -1.6291          2.8319          8.6777
    28 ( vir )            7.4750         -1.6291          2.8319          8.6778
   
  G0W0 HOMO-LUMO gap (eV)                                                11.6140
  
  ------------------------------------------------------------------------------
  
 *******************************************************************************
 **                                                                           **
 **           Bethe Salpeter equation (BSE) for excitation energies           **
 **               solved without Tamm-Dancoff approximation (TDA)             **
 **                                                                           **
 *******************************************************************************
  
[...]
 MP_Sync               749
 MP_Alltoall          1771              109446255.
 MP_SendRecv          2993                 531028.
 MP_ISendRecv         5934                 270173.
 MP_Wait             17985
 MP_comm_split         117
 MP_ISend            11249                2088002.
 MP_IRecv            11256                2086704.
 -------------------------------------------------------------------------------


 -------------------------------------------------------------------------------
 -                                                                             -
 -                           R E F E R E N C E S                               -
 -                                                                             -
 -------------------------------------------------------------------------------
 
 CP2K version 2025.1 (Development Version), the CP2K developers group (2025).
 CP2K is freely available from https://www.cp2k.org/ .
 
 T. D. Kuehne, M. Iannuzzi, M. Del Ben, V. V. Rybkin, P. Seewald, F. Stein, T. 
 Laino, R. Z. Khaliullin, O. Schuett, F. Schiffmann, D. Golze, J. Wilhelm, S. 
 Chulkov, M. H. Bani-Hashemian, V. Weber, U. Borstnik, M. Taillefumier, A. S. 
 Jakobovits, A. Lazzaro, H. Pabst, T. Mueller, R. Schade, M. Guidon, S. 
 Andermatt, N. Holmberg, G. K. Schenter, A. Hehn, A. Bussy, F. Belleflamme, G. 
 Tabacchi, A. Gloess, M. Lass, I. Bethune, C. J. Mundy, C. Plessl, M. Watkins, 
 J. VandeVondele, M. Krack, J. Hutter.
 J. Chem. Phys. 152, 194103 (2020).
 CP2K: An electronic structure and molecular dynamics software package - 
 Quickstep: Efficient and accurate electronic structure calculations.
 https://doi.org/10.1063/5.0007045

 J. Wilhelm, D. Golze, L. Talirz, J. Hutter, C. A. Pignedoli.
 J. Phys. Chem. Lett. 9, 306-312 (2018).
 Toward GW calculations on thousands of atoms.
 https://doi.org/10.1021/acs.jpclett.7b02740

 J. Wilhelm, J. Hutter.
 Phys. Rev. B 95, 235123 (2017).
 Periodic GW calculations in the Gaussian and plane-waves scheme.
 https://doi.org/10.1103/PhysRevB.95.235123

 O. Schuett, P. Messmer, J. Hutter, J. VandeVondele.
 Electronic Structure Calculations on Graphics Processing Units, 173-190 (2016).
 GPU-Accelerated Sparse Matrix-Matrix Multiplication for Linear Scaling Density 
 Functional Theory.
 https://doi.org/10.1002/9781118670712.ch8

 J. Wilhelm, M. Del Ben, J. Hutter.
 J. Chem. Theory Comput. 12, 3623-3635 (2016).
 GW in the Gaussian and plane waves scheme with application to linear acenes.
 https://doi.org/10.1021/acs.jctc.6b00380

 M. Del Ben, O. Schuett, T. Wentz, P. Messmer, J. Hutter, J. VandeVondele.
 Comput. Phys. Commun. 187, 120-129 (2015).
 Enabling simulation at the fifth rung of DFT: Large scale RPA calculations with 
 excellent time to solution.
 https://doi.org/10.1016/j.cpc.2014.10.021

 J. Hutter, M. Iannuzzi, F. Schiffmann, J. VandeVondele.
 WIREs Comput Mol Sci. 4, 15-25 (2014).
 CP2K: atomistic simulations of condensed matter systems.
 https://doi.org/10.1002/wcms.1159

 U. Borstnik, J. VandeVondele, V. Weber, J. Hutter.
 Parallel Comput. 40, 47-58 (2014).
 Sparse matrix multiplication: The distributed block-compressed sparse row 
 library.
 https://doi.org/10.1016/j.parco.2014.03.012

 M. Del Ben, J. Hutter, J. VandeVondele.
 J. Chem. Theory Comput. 9, 2654-2671 (2013).
 Electron Correlation in the Condensed Phase from a Resolution of Identity 
 Approach Based on the Gaussian and Plane Waves Scheme.
 https://doi.org/10.1021/ct4002202

 M. Del Ben, J. Hutter, J. VandeVondele.
 J. Chem. Theory Comput. 8, 4177-4188 (2012).
 Second-Order Moller-Plesset Perturbation Theory in the Condensed Phase: An 
 Efficient and Massively Parallel Gaussian and Plane Waves Approach.
 https://doi.org/10.1021/ct300531w

 M. Guidon, J. Hutter, J. VandeVondele.
 J. Chem. Theory Comput. 5, 3010-3021 (2009).
 Robust Periodic Hartree-Fock Exchange for Large-Scale Simulations Using 
 Gaussian Basis Sets.
 https://doi.org/10.1021/ct900494g

 M. Guidon, F. Schiffmann, J. Hutter, J. VandeVondele.
 J. Chem. Phys. 128, 214104 (2008).
 Ab initio molecular dynamics using hybrid density functionals.
 https://doi.org/10.1063/1.2931945

 L. Genovese, T. Deutsch, S. Goedecker.
 J. Chem. Phys. 127, 054704 (2007).
 Efficient and accurate three-dimensional Poisson solver for surface problems.
 https://doi.org/10.1063/1.2754685

 J. VandeVondele, J. Hutter.
 J. Chem. Phys. 127, 114105 (2007).
 Gaussian basis sets for accurate calculations on molecular systems in gas and 
 condensed phases.
 https://doi.org/10.1063/1.2770708

 L. Genovese, T. Deutsch, A. Neelov, S. Goedecker, G. Beylkin.
 J. Chem. Phys. 125, 074105 (2006).
 Efficient solution of Poisson's equation with free boundary conditions.
 https://doi.org/10.1063/1.2335442

 M. Frigo, S. G. Johnson.
 Proc. IEEE 93, 216-231 (2005).
 The design and implementation of FFTW3.
 https://doi.org/10.1109/JPROC.2004.840301

 M. Krack, M. Parrinello.
 Phys. Chem. Chem. Phys. 2, 2105-2112 (2000).
 All-electron ab-initio molecular dynamics.
 https://doi.org/10.1039/b001167n

 G. Lippert, J. Hutter, M. Parrinello.
 Theor. Chem. Acc. 103, 124-140 (1999).
 The Gaussian and augmented-plane-wave density functional method for ab initio 
 molecular dynamics simulations.
 https://doi.org/10.1007/s002140050523

 J. P. Perdew, K. Burke, M. Ernzerhof.
 Phys. Rev. Lett. 77, 3865-3868 (1996).
 Generalized gradient approximation made simple.
 https://doi.org/10.1103/PhysRevLett.77.3865


 -------------------------------------------------------------------------------
 -                                                                             -
 -                                T I M I N G                                  -
 -                                                                             -
 -------------------------------------------------------------------------------
 SUBROUTINE                       CALLS  ASD         SELF TIME        TOTAL TIME
                                MAXIMUM       AVERAGE  MAXIMUM  AVERAGE  MAXIMUM
 CP2K                                 1  1.0    0.043    0.066  349.423  349.423
 qs_energies                          1  2.0    0.001    0.001  348.197  348.411
 scf_env_do_scf                       1  3.0    0.000    0.000  343.696  343.697
 scf_env_do_scf_inner_loop           63  4.0    0.002    0.004  343.696  343.696
 qs_ks_build_kohn_sham_matrix        64  7.0    0.011    0.012  258.763  258.770
 qs_ks_update_qs_env                 63  5.0    0.000    0.001  256.364  256.370
 rebuild_ks_matrix                   63  6.0    0.000    0.000  256.361  256.367
 fft_wrap_pw1pw2                   1335  9.9    0.032    0.040  154.212  156.280
 fft_wrap_pw1pw2_250                951 11.1    6.747    7.564  149.428  151.761
 fft3d_ps                          1335 11.9   66.799   69.839  121.613  123.639
 pw_poisson_solve                    64  8.0    2.806    2.869  104.908  104.938
 qs_vxc_create                       64  8.0    0.001    0.001   93.272   93.272
 xc_vxc_pw_create                    63  9.0    1.672    1.727   93.271   93.271
 ps_wavelet_solve                    64  9.0   58.748   62.725   69.591   69.784
 xc_pw_derive                       378 11.0    0.005    0.005   67.042   68.788
 mp_alltoall_d54                     64 10.0    6.789   54.776    6.789   54.776
 xc_rho_set_and_dset_create          63 10.0    1.218    1.361   45.849   47.925
 gspace_mixing                       62  5.0    1.275    1.301   47.627   47.627
 xc_pw_divergence                    63 10.0    0.003    0.004   44.938   46.554
 mp_alltoall_z22v                  1335 13.9   34.092   44.933   34.092   44.933
 qs_rho_update_rho_low               64  5.0    0.001    0.001   40.037   40.037
 calculate_rho_elec                  64  6.0    1.393    1.429   39.980   39.980
 broyden_mixing                      62  6.0   35.303   35.912   36.216   36.469
 x_to_yz                            698 13.1   14.086   14.349   30.530   31.463
 yz_to_x                            637 12.8    6.617    8.013   24.266   31.389
 density_rs2pw                       64  7.0    0.005    0.005   29.493   29.902
 sum_up_and_integrate                64  8.0    0.001    0.001   21.361   21.393
 integrate_v_rspace                  64  9.0    0.001    0.002   20.966   21.024
 potential_pw2rs                     64 10.0    0.059    0.072   20.526   20.590
 prepare_gapw_den                    64  8.0    0.001    0.001   16.694   16.919
 put_rho0_on_grid                    64  9.0    1.310    1.335   16.169   16.393
 transfer_pw2rs                     321 10.6    0.005    0.007   12.159   12.238
 xc_functional_eval                 189 10.9    0.001    0.001    9.886   11.826
 pbe_lda_eval                       189 11.9    9.886   11.824    9.886   11.824
 pw_scatter_p                       698 12.1   11.096   11.264   11.096   11.264
 transfer_rs2pw                     321  8.4    0.009    0.012   10.377   10.493
 pw_gather_p                        637 11.8    9.274   10.055    9.274   10.055
 transfer_pw2rs_250                 129 10.9    3.198    3.410    8.906    9.140
 mp_waitany                       10808 11.5    8.555    9.065    8.555    9.065
 grid_collocate_task_list            64  7.0    8.537    8.905    8.537    8.905
 pw_derive                          570 11.3    7.570    7.972    7.570    7.972
 transfer_rs2pw_250                 129 10.0    3.447    3.581    7.755    7.863
 mp_sum_d                          1551  6.0    3.848    6.769    3.848    6.769
 integrate_vhg0_rspace               64  8.0    0.025    0.031    5.612    5.620
 fft_wrap_pw1pw2_90                 128 10.5    0.196    0.259    3.934    4.567
 cp2k_distribution_to_z_slices       64  9.0    2.529    2.653    4.047    4.493
 mp_alltoall_d45                     65 10.0    3.356    4.484    3.356    4.484
 pw_copy                            955 10.6    4.049    4.312    4.049    4.312
 hfx_ks_matrix                       64  8.0    0.002    0.003    4.152    4.233
 integrate_four_center               64  9.0    1.286    2.689    4.148    4.229
 pw_poisson_set                      65  8.9    0.002    0.003    3.790    3.820
 mp_sync                            749  9.4    2.305    3.644    2.305    3.644
 mp_alltoall_d11v                  1312  9.5    2.681    3.630    2.681    3.630
 pw_copy_to_array                   637 11.8    3.307    3.612    3.307    3.612
 mp2_main                             1  3.0    0.000    0.001    3.203    3.417
 pw_axpy                            635  9.3    2.788    3.028    2.788    3.028
 rs_grid_zero                       322 11.1    2.795    2.834    2.795    2.834
 pw_integral_ab_c1d_c1d_gs           64  9.0    1.909    2.122    2.298    2.413
 compute_vec_Sigma_x_minus_vxc_       1  4.0    0.000    0.000    2.406    2.406
 pw_copy_from_array                 698 12.1    1.910    2.327    1.910    2.327
 pw_poisson_rebuild                  64  9.0    0.000    0.000    1.813    1.849
 ps_wavelet_create                    1 10.0    0.000    0.000    1.813    1.849
 RS_z_slice_distribution              1 11.0    1.657    1.715    1.813    1.849
 transfer_pw2rs_90                   64 12.0    0.511    0.556    1.675    1.846
 mp_isend_dv                      10817 11.6    0.868    1.477    0.868    1.477
 pw_zero                            380 10.3    1.274    1.339    1.274    1.339
 transfer_rs2pw_90                   64  9.0    0.407    0.427    1.265    1.335
 transfer_pw2rs_30                   64 12.0    0.719    0.755    1.216    1.288
 mp_sum_dm                          452  7.6    0.894    1.282    0.894    1.282
 calculate_vxc_atom                  64  8.0    0.015    0.103    1.212    1.212
 integrate_four_center_main          64 10.0    0.014    0.121    0.100    1.156
 integrate_four_center_bin         5087 11.0    0.085    1.142    0.085    1.142
 transfer_rs2pw_30                   64  9.0    0.559    0.573    1.077    1.100
 mp_waitall_1                     12652 12.1    0.812    1.087    0.812    1.087
 init_scf_run                         1  3.0    0.000    0.000    1.067    1.068
 scf_env_initial_rho_setup            1  4.0    0.000    0.000    1.062    1.063
 gaVxcgb_GC                          63  9.0    0.085    1.037    0.085    1.037
 mp_max_i                           532  2.9    0.520    1.016    0.520    1.016
 scale_and_distribute               128 10.0    0.853    0.889    0.853    0.889
 Vh_1c_gg_integrals                  64  8.0    0.010    0.078    0.277    0.867
 qs_init_subsys                       1  2.0    0.003    0.004    0.857    0.857
 qs_env_setup                         1  3.0    0.000    0.000    0.850    0.850
 qs_env_rebuild_pw_env                2  3.5    0.000    0.000    0.849    0.850
 pw_env_rebuild                       1  5.0    0.001    0.001    0.848    0.849
 pw_grid_setup                        4  6.0    0.000    0.000    0.840    0.841
 pw_grid_setup_internal               4  7.0    0.019    0.024    0.840    0.841
 mp_irecv_dm3                      1544 11.5    0.450    0.766    0.450    0.766
 mp_sendrecv_dv                    2944 10.0    0.682    0.728    0.682    0.728
 fft_wrap_pw1pw2_30                 128 10.5    0.031    0.035    0.667    0.708
 mp_isend_dm3                      1544 11.5    0.431    0.691    0.431    0.691
 pw_grid_sort                         4  8.0    0.471    0.477    0.667    0.674
 mp_sum_dv                         2017 11.2    0.518    0.674    0.518    0.674
 mp2_gpw_main                         1  4.0    0.000    0.000    0.621    0.632
 calculate_rho_atom                  64  9.0    0.136    0.491    0.136    0.491
 rpa_ri_compute_en                    1  5.0    0.000    0.001    0.450    0.451
 rpa_num_int                          1  6.0    0.001    0.001    0.443    0.443
 rs_gather_matrices                  64 10.0    0.001    0.002    0.303    0.434
 grid_integrate_task_list            64 10.0    0.136    0.422    0.136    0.422
 qs_scf_new_mos                      63  5.0    0.001    0.001    0.407    0.410
 transfer_pw2rs_10                   64 12.0    0.157    0.164    0.357    0.384
 pw_scale                           253  9.5    0.343    0.379    0.343    0.379
 mp_sum_i                            17  9.9    0.214    0.372    0.214    0.372
 restraint_control                    1  2.0    0.000    0.000    0.214    0.372
 mp2_main_alloc_hfx                   1  4.0    0.158    0.372    0.158    0.372
 mp_isendrecv_dv                   5888 12.0    0.187    0.357    0.187    0.357
 calc_screening_functions             1 10.0    0.281    0.284    0.347    0.350
 mixing_init                          1  5.0    0.290    0.294    0.294    0.295
 transfer_rs2pw_10                   64  9.0    0.106    0.110    0.270    0.279
 compute_GW_self_energy             100  7.0    0.001    0.001    0.240    0.245
 xc_pw_smooth                        63 10.0    0.000    0.000    0.171    0.219
 sort_shells                          4  9.0    0.196    0.200    0.196    0.200
 eigensolver_symm                    64  6.0    0.003    0.003    0.200    0.200
 cp_fm_syevd                         69  7.0    0.000    0.001    0.192    0.192
 parallel_gemm_fm                   345  8.6    0.000    0.001    0.183    0.185
 parallel_gemm_fm_gemm              345  9.6    0.000    0.001    0.182    0.185
 cp_fm_gemm                         345 10.6    0.182    0.184    0.182    0.184
 scf_post_calculation_gpw             1  3.0    0.000    0.000    0.175    0.175
 write_available_results              1  4.0    0.000    0.000    0.175    0.175
 write_mo_free_results                1  5.0    0.027    0.035    0.175    0.175
 fft_wrap_pw1pw2_10                 128 10.5    0.007    0.009    0.152    0.165
 rpa_num_int_RPA_matrix_operati     100  7.0    0.001    0.002    0.161    0.161
 compute_GW_self_energy_deep        100  8.0    0.050    0.052    0.157    0.161
 mp2_ri_gpw_compute_in                1  5.0    0.000    0.000    0.156    0.160
 cp_fm_redistribute_end              69  8.0    0.088    0.152    0.089    0.154
 calculate_dm_sparse                 63  6.0    0.000    0.000    0.150    0.152
 cp_dbcsr_plus_fm_fm_t               63  7.0    0.001    0.001    0.150    0.151
 mp2_ri_gpw_compute_in_loop           1  6.0    0.000    0.000    0.148    0.148
 dbcsr_multiply_generic             140  8.1    0.006    0.006    0.142    0.145
 cp_fm_syevd_base                    69  8.0    0.064    0.128    0.064    0.128
 mp_irecv_dv                      10813 11.6    0.074    0.124    0.074    0.124
 powell_optimize                  47667 11.0    0.118    0.120    0.118    0.120
 pw_grid_assign                       4  8.0    0.103    0.106    0.105    0.106
 contract_B_L                         4  7.0    0.001    0.001    0.085    0.106
 calc_mat_Q                         100  8.0    0.000    0.000    0.099    0.100
 contract_S_to_Q                    100  9.0    0.000    0.000    0.098    0.099
 calc_pair_dist_radii                 1 10.0    0.045    0.046    0.097    0.098
 make_m2s                           280  9.1    0.004    0.004    0.073    0.077
 hirshfeld_integration                1  6.0    0.001    0.004    0.074    0.077
 cp_fm_cholesky_invert              101  8.0    0.068    0.075    0.068    0.075
 calculate_hirshfeld_normalizat       1  6.0    0.001    0.007    0.069    0.074
 mp_cart_create                     319 10.7    0.052    0.073    0.053    0.073
 dbcsr_complete_redistribute        240  8.5    0.009    0.012    0.072    0.073
 copy_dbcsr_to_fm                   110  6.8    0.002    0.002    0.068    0.071
 dbt_pgrid_create_expert             80 10.7    0.000    0.000    0.040    0.060
 mp2_eri_3c_integrate                 1  7.0    0.000    0.000    0.027    0.060
 integrate_set_3c                    60  8.0    0.025    0.056    0.027    0.060
 compute_Erpa_by_freq_int           100  8.0    0.001    0.001    0.058    0.058
 cp_fm_cholesky_decompose           102  9.0    0.057    0.057    0.057    0.057
 calculate_rho_atom_coeff            64  6.0    0.012    0.022    0.056    0.057
 qs_energies_init_hamiltonians        1  3.0    0.000    0.000    0.055    0.055
 build_core_hamiltonian_matrix        1  4.0    0.000    0.000    0.051    0.051
 cp_fm_to_fm_submat_general         112 10.1    0.048    0.050    0.048    0.050
 overlap_condnum                      1  5.0    0.000    0.000    0.049    0.050
 multiply_cannon                    140  9.1    0.010    0.011    0.043    0.045
 offload_free_buffer                 72  8.3    0.036    0.044    0.036    0.044
 vxc_of_r_new                       126  9.0    0.001    0.006    0.004    0.044
 create_qs_kind_set                   1  2.0    0.000    0.000    0.043    0.044
 read_qs_kind                         1  3.0    0.014    0.019    0.043    0.044
 copy_fm_to_dbcsr                   130  8.1    0.001    0.001    0.038    0.039
 cp_fm_redistribute_start            69  8.0    0.030    0.031    0.038    0.038
 dbt_total                            8  8.0    0.000    0.000    0.038    0.038
 dbcsr_finalize                    1729 10.8    0.007    0.011    0.026    0.037
 arnoldi_conjugate_gradient           5  6.0    0.001    0.001    0.036    0.036
 make_images                        280 10.1    0.007    0.007    0.034    0.035
 -------------------------------------------------------------------------------

 The number of warnings for this run is : 1
 
 -------------------------------------------------------------------------------
  **** **** ******  **  PROGRAM ENDED AT                 2025-03-07 08:27:32.818
 ***** ** ***  *** **   PROGRAM RAN ON                              i01r06c04s02
 **    ****   ******    PROGRAM RAN BY                                   di38fab
 ***** **    ** ** **   PROGRAM PROCESS ID                                955087
  **** **  *******  **  PROGRAM STOPPED IN /hppfs/scratch/04/di38fab/05_MOL/W4-1
                                           1+ALK/li2/SZVSR
