 DBCSR| CPU Multiplication driver                                           BLAS (U)
 DBCSR| Multrec recursion limit                                              512 (U)
 DBCSR| Multiplication stack size                                           1000 (D)
 DBCSR| Maximum elements for images                                    UNLIMITED (U)
 DBCSR| Multiplicative factor virtual images                                   1 (U)
 DBCSR| Use multiplication densification                                       T (D)
 DBCSR| Multiplication size stacks                                             3 (U)
 DBCSR| Use memory pool for CPU allocation                                     F (U)
 DBCSR| Number of 3D layers                                               SINGLE (U)
 DBCSR| Use MPI memory allocation                                              F (U)
 DBCSR| Use RMA algorithm                                                      F (U)
 DBCSR| Use Communication thread                                               T (U)
 DBCSR| Communication thread load                                             75 (D)
 DBCSR| MPI: My process id                                                     0
 DBCSR| MPI: Number of processes                                              24
 DBCSR| OMP: Current number of threads                                         4
 DBCSR| OMP: Max number of threads                                             4
 DBCSR| Split modifier for TAS multiplication algorithm                  1.0E+00 (U)


  **** **** ******  **  PROGRAM STARTED AT               2025-03-07 18:28:16.233
 ***** ** ***  *** **   PROGRAM STARTED ON                          i05r09c06s11
 **    ****   ******    PROGRAM STARTED BY                               di38fab
 ***** **    ** ** **   PROGRAM PROCESS ID                               1623446
  **** **  *******  **  PROGRAM STARTED IN /hppfs/scratch/04/di38fab/05_MOL/W4-1
                                           1+ALK/b2/SZVSR

 CP2K| version string:                 CP2K version 2025.1 (Development Version)
 CP2K| source code revision number:                                  git:47877ba
 CP2K| cp2kflags: omp libint fftw3 libxc parallel scalapack max_contr=4         
 CP2K| is freely available from                            https://www.cp2k.org/
 CP2K| Program compiled at                          Thu Feb 20 16:00:34 CET 2025
 CP2K| Program compiled on                                               login04
 CP2K| Program compiled for                                        Supermuc-foss
 CP2K| Data directory path          /hppfs/work/pn36zo/di38fab/newcp2k/cp2k/data
 CP2K| Input file name                                                    GW.inp

 GLOBAL| Force Environment number                                              1
 GLOBAL| Basis set file name            /hppfs/scratch/04/di38fab/04_TMD/BASIS_A
 GLOBAL| Potential file name            /hppfs/work/pn36zo/di38fab/cp2k/data/ALL
 GLOBAL| MM Potential file name                                     MM_POTENTIAL
 GLOBAL| Coordinate file name                                      __STD_INPUT__
 GLOBAL| Method name                                                        CP2K
 GLOBAL| Project name                                                       MoS2
 GLOBAL| Run type                                                         ENERGY
 GLOBAL| FFT library                                                       FFTW3
 GLOBAL| Diagonalization library                                       ScaLAPACK
 GLOBAL| DGEMM library                                                      BLAS
 GLOBAL| Orthonormality check for eigenvectors                          DISABLED
 GLOBAL| Matrix multiplication library                                 ScaLAPACK
 GLOBAL| All-to-all communication in single precision                          F
 GLOBAL| FFTs using library dependent lengths                                  F
 GLOBAL| Grid backend                                                       AUTO
 GLOBAL| Global print level                                               MEDIUM
 GLOBAL| MPI I/O enabled                                                       T
 GLOBAL| Total number of message passing processes                            24
 GLOBAL| Number of threads for this process                                    4
 GLOBAL| This output is from process                                           0
 GLOBAL| OpenMP stack size per thread (OMP_STACKSIZE)                    default
 GLOBAL| CPU model name             Intel(R) Xeon(R) Platinum 8174 CPU @ 3.10GHz

 MEMORY| system memory details [Kb]
 MEMORY|                        rank 0           min           max       average
 MEMORY| MemTotal             98436664      98436664      98436664      98436664
 MEMORY| MemFree              84247748      84128028      84247748      84187888
 MEMORY| Buffers                     0             0             0             0
 MEMORY| Cached                2405240       2405240       2405996       2405618
 MEMORY| Slab                  1211696       1211696       1228012       1219854
 MEMORY| SReclaimable           266432        266432        278464        272448
 MEMORY| MemLikelyFree        86919420      86812488      86919420      86865954


 *** Fundamental physical constants (SI units) ***

 *** Literature: B. J. Mohr and B. N. Taylor,
 ***             CODATA recommended values of the fundamental physical
 ***             constants: 2006, Web Version 5.1
 ***             http://physics.nist.gov/constants

 Speed of light in vacuum [m/s]                             2.99792458000000E+08
 Magnetic constant or permeability of vacuum [N/A**2]       1.25663706143592E-06
 Electric constant or permittivity of vacuum [F/m]          8.85418781762039E-12
 Planck constant (h) [J*s]                                  6.62606896000000E-34
 Planck constant (h-bar) [J*s]                              1.05457162825177E-34
 Elementary charge [C]                                      1.60217648700000E-19
 Electron mass [kg]                                         9.10938215000000E-31
 Electron g factor [ ]                                     -2.00231930436220E+00
 Proton mass [kg]                                           1.67262163700000E-27
 Fine-structure constant                                    7.29735253760000E-03
 Rydberg constant [1/m]                                     1.09737315685270E+07
 Avogadro constant [1/mol]                                  6.02214179000000E+23
 Boltzmann constant [J/K]                                   1.38065040000000E-23
 Atomic mass unit [kg]                                      1.66053878200000E-27
 Bohr radius [m]                                            5.29177208590000E-11

 *** Conversion factors ***

 [u] -> [a.u.]                                              1.82288848426455E+03
 [Angstrom] -> [Bohr] = [a.u.]                              1.88972613288564E+00
 [a.u.] = [Bohr] -> [Angstrom]                              5.29177208590000E-01
 [a.u.] -> [s]                                              2.41888432650478E-17
 [a.u.] -> [fs]                                             2.41888432650478E-02
 [a.u.] -> [J]                                              4.35974393937059E-18
 [a.u.] -> [N]                                              8.23872205491840E-08
 [a.u.] -> [K]                                              3.15774647902944E+05
 [a.u.] -> [kJ/mol]                                         2.62549961709828E+03
 [a.u.] -> [kcal/mol]                                       6.27509468713739E+02
 [a.u.] -> [Pa]                                             2.94210107994716E+13
 [a.u.] -> [bar]                                            2.94210107994716E+08
 [a.u.] -> [atm]                                            2.90362800883016E+08
 [a.u.] -> [eV]                                             2.72113838565563E+01
 [a.u.] -> [Hz]                                             6.57968392072181E+15
 [a.u.] -> [1/cm] (wave numbers)                            2.19474631370540E+05
 [a.u./Bohr**2] -> [1/cm]                                   5.14048714338585E+03
 

 CELL_TOP| Volume [angstrom^3]:                                     27000.000000
 CELL_TOP| Vector a [angstrom    30.000     0.000     0.000   |a| =    30.000000
 CELL_TOP| Vector b [angstrom     0.000    30.000     0.000   |b| =    30.000000
 CELL_TOP| Vector c [angstrom     0.000     0.000    30.000   |c| =    30.000000
 CELL_TOP| Angle (b,c), alpha [degree]:                                90.000000
 CELL_TOP| Angle (a,c), beta  [degree]:                                90.000000
 CELL_TOP| Angle (a,b), gamma [degree]:                                90.000000
 CELL_TOP| Numerically orthorhombic:                                         YES
 CELL_TOP| Periodicity                                                      NONE

 GENERATE|  Preliminary Number of Bonds generated:                             0
 GENERATE|  Achieved consistency in connectivity generation.

 CELL| Volume [angstrom^3]:                                         27000.000000
 CELL| Vector a [angstrom]:      30.000     0.000     0.000   |a| =    30.000000
 CELL| Vector b [angstrom]:       0.000    30.000     0.000   |b| =    30.000000
 CELL| Vector c [angstrom]:       0.000     0.000    30.000   |c| =    30.000000
 CELL| Angle (b,c), alpha [degree]:                                    90.000000
 CELL| Angle (a,c), beta  [degree]:                                    90.000000
 CELL| Angle (a,b), gamma [degree]:                                    90.000000
 CELL| Numerically orthorhombic:                                             YES
 CELL| Periodicity                                                          NONE

 CELL_REF| Volume [angstrom^3]:                                     27000.000000
 CELL_REF| Vector a [angstrom    30.000     0.000     0.000   |a| =    30.000000
 CELL_REF| Vector b [angstrom     0.000    30.000     0.000   |b| =    30.000000
 CELL_REF| Vector c [angstrom     0.000     0.000    30.000   |c| =    30.000000
 CELL_REF| Angle (b,c), alpha [degree]:                                90.000000
 CELL_REF| Angle (a,c), beta  [degree]:                                90.000000
 CELL_REF| Angle (a,b), gamma [degree]:                                90.000000
 CELL_REF| Numerically orthorhombic:                                         YES
 CELL_REF| Periodicity                                                      NONE

 *******************************************************************************
 *******************************************************************************
 **                                                                           **
 **     #####                         ##              ##                      **
 **    ##   ##            ##          ##              ##                      **
 **   ##     ##                       ##            ######                    **
 **   ##     ##  ##   ##  ##   #####  ##  ##   ####   ##    #####    #####    **
 **   ##     ##  ##   ##  ##  ##      ## ##   ##      ##   ##   ##  ##   ##   **
 **   ##  ## ##  ##   ##  ##  ##      ####     ###    ##   ######   ######    **
 **    ##  ###   ##   ##  ##  ##      ## ##      ##   ##   ##       ##        **
 **     #######   #####   ##   #####  ##  ##  ####    ##    #####   ##        **
 **           ##                                                    ##        **
 **                                                                           **
 **                                                ... make the atoms dance   **
 **                                                                           **
 **            Copyright (C) by CP2K developers group (2000-2025)             **
 **                      J. Chem. Phys. 152, 194103 (2020)                    **
 **                                                                           **
 *******************************************************************************

 DFT| Spin restricted Kohn-Sham (RKS) calculation                            RKS
 DFT| Multiplicity                                                             1
 DFT| Number of spin states                                                    1
 DFT| Charge                                                                   0
 DFT| Self-interaction correction (SIC)                                       NO
 DFT| Cutoffs: density                                              1.000000E-10
 DFT|          gradient                                             1.000000E-10
 DFT|          tau                                                  1.000000E-10
 DFT|          cutoff_smoothing_range                               0.000000E+00
 DFT| XC density smoothing                                                  NONE
 DFT| XC derivatives                                                          PW

 FUNCTIONAL| PBE:
 FUNCTIONAL| J.P.Perdew, K.Burke, M.Ernzerhof, Phys. Rev. Letter, vol. 77, n 18,
 FUNCTIONAL|  pp. 3865-3868, (1996)sx=0.750sc=1.000{spin unpolarized}           


 QS| Method:                                                                GAPW
 QS| Density plane wave grid type                        NON-SPHERICAL FULLSPACE
 QS| Number of grid levels:                                                    4
 QS| Density cutoff [a.u.]:                                                250.0
 QS| Multi grid cutoff [a.u.]: 1) grid level                               250.0
 QS|                           2) grid level                                83.3
 QS|                           3) grid level                                27.8
 QS|                           4) grid level                                 9.3
 QS| Grid level progression factor:                                          3.0
 QS| Relative density cutoff [a.u.]:                                        50.0
 QS| Interaction thresholds: eps_pgf_orb:                                1.0E-12
 QS|                         eps_filter_matrix:                          0.0E+00
 QS|                         eps_core_charge:                            1.0E-14
 QS|                         eps_rho_gspace:                             1.0E-12
 QS|                         eps_rho_rspace:                             1.0E-12
 QS|                         eps_gvg_rspace:                             1.0E-06
 QS|                         eps_ppl:                                    1.0E-02
 QS|                         eps_ppnl:                                   1.0E-08
 QS| GAPW|      One center basis from orbital basis primitives
 QS| GAPW|                   eps_fit:                                    1.0E-04
 QS| GAPW|                   eps_iso:                                    1.0E-12
 QS| GAPW|                   eps_svd:                                    1.0E-08
 QS| GAPW|                   eps_cpc:                                    1.0E-12
 QS| GAPW|   atom-r-grid: quadrature:                                     GC_LOG
 QS| GAPW|      atom-s-grid:  max l :                                          4
 QS| GAPW|      max_l_rho0 :                                                   2


 ATOMIC KIND INFORMATION

  1. Atomic kind: B                                     Number of atoms:       2

     Orbital Basis Set                                         aug-SZV-MOLOPT-ae

       Number of orbital shell sets:                                           2
       Number of orbital shells:                                               6
       Number of primitive Cartesian functions:                               13
       Number of Cartesian basis functions:                                   15
       Number of spherical basis functions:                                   14
       Norm type:                                                              2

       Normalised Cartesian orbitals:

                        Set   Shell   Orbital            Exponent    Coefficient

                          1       1    1s                0.109280       0.032606
                                                         0.155613       0.000000
                                                         0.238409       0.144712
                                                         0.548949       0.113742
                                                         1.426820      -0.031435
                                                         4.590809      -0.105038
                                                        23.194561      -0.099829

                          1       2    2s                0.109280      -0.049098
                                                         0.155613      -0.119813
                                                         0.238409      -0.025283
                                                         0.548949       0.056653
                                                         1.426820       0.132404
                                                         4.590809       0.000000
                                                        23.194561       0.000000

                          1       3    2px               0.109280       0.009109
                                                         0.155613       0.000000
                                                         0.238409       0.101125
                                                         0.548949       0.281559
                                                         1.426820       0.386539
                                                         4.590809       0.360915
                                                        23.194561       0.272788
                          1       3    2py               0.109280       0.009109
                                                         0.155613       0.000000
                                                         0.238409       0.101125
                                                         0.548949       0.281559
                                                         1.426820       0.386539
                                                         4.590809       0.360915
                                                        23.194561       0.272788
                          1       3    2pz               0.109280       0.009109
                                                         0.155613       0.000000
                                                         0.238409       0.101125
                                                         0.548949       0.281559
                                                         1.426820       0.386539
                                                         4.590809       0.360915
                                                        23.194561       0.272788

                          1       4    3px               0.109280       0.062233
                                                         0.155613       0.035668
                                                         0.238409       0.015304
                                                         0.548949      -0.003054
                                                         1.426820       0.021875
                                                         4.590809       0.000000
                                                        23.194561       0.000000
                          1       4    3py               0.109280       0.062233
                                                         0.155613       0.035668
                                                         0.238409       0.015304
                                                         0.548949      -0.003054
                                                         1.426820       0.021875
                                                         4.590809       0.000000
                                                        23.194561       0.000000
                          1       4    3pz               0.109280       0.062233
                                                         0.155613       0.035668
                                                         0.238409       0.015304
                                                         0.548949      -0.003054
                                                         1.426820       0.021875
                                                         4.590809       0.000000
                                                        23.194561       0.000000

                          1       5    3dx2              0.109280       0.000986
                                                         0.155613       0.002022
                                                         0.238409       0.109458
                                                         0.548949       0.095099
                                                         1.426820       0.028232
                                                         4.590809       0.000000
                                                        23.194561       0.000000
                          1       5    3dxy              0.109280       0.001708
                                                         0.155613       0.003503
                                                         0.238409       0.189586
                                                         0.548949       0.164717
                                                         1.426820       0.048900
                                                         4.590809       0.000000
                                                        23.194561       0.000000
                          1       5    3dxz              0.109280       0.001708
                                                         0.155613       0.003503
                                                         0.238409       0.189586
                                                         0.548949       0.164717
                                                         1.426820       0.048900
                                                         4.590809       0.000000
                                                        23.194561       0.000000
                          1       5    3dy2              0.109280       0.000986
                                                         0.155613       0.002022
                                                         0.238409       0.109458
                                                         0.548949       0.095099
                                                         1.426820       0.028232
                                                         4.590809       0.000000
                                                        23.194561       0.000000
                          1       5    3dyz              0.109280       0.001708
                                                         0.155613       0.003503
                                                         0.238409       0.189586
                                                         0.548949       0.164717
                                                         1.426820       0.048900
                                                         4.590809       0.000000
                                                        23.194561       0.000000
                          1       5    3dz2              0.109280       0.000986
                                                         0.155613       0.002022
                                                         0.238409       0.109458
                                                         0.548949       0.095099
                                                         1.426820       0.028232
                                                         4.590809       0.000000
                                                        23.194561       0.000000

                          2       1    1s              506.011837       0.696781
                                                        92.776716       1.051665
                                                        25.955582       1.381280
                                                         8.916443       1.362748
                                                         3.462516       0.753460
                                                         1.426055       0.121219

     RI Auxiliary Basis Set             RI_aug-SZV-MOLOPT-ae_N_RI_035_s_p_d_f_g_

       Number of orbital shell sets:                                          13
       Number of orbital shells:                                              13
       Number of primitive Cartesian functions:                               13
       Number of Cartesian basis functions:                                   40
       Number of spherical basis functions:                                   35
       Norm type:                                                              2

       Normalised Cartesian orbitals:

                        Set   Shell   Orbital            Exponent    Coefficient

                          1       1    7px               0.266783       0.273299
                          1       1    7py               0.266783       0.273299
                          1       1    7pz               0.266783       0.273299

                          2       1    1s                0.279559       0.274009

                          3       1   11dx2              0.438811       0.389399
                          3       1   11dxy              0.438811       0.674459
                          3       1   11dxz              0.438811       0.674459
                          3       1   11dy2              0.438811       0.389399
                          3       1   11dyz              0.438811       0.674459
                          3       1   11dz2              0.438811       0.389399

                          4       1   13fx3              0.524510       0.344667
                          4       1   13fx2y             0.524510       0.770700
                          4       1   13fx2z             0.524510       0.770700
                          4       1   13fxy2             0.524510       0.770700
                          4       1   13fxyz             0.524510       1.334891
                          4       1   13fxz2             0.524510       0.770700
                          4       1   13fy3              0.524510       0.344667
                          4       1   13fy2z             0.524510       0.770700
                          4       1   13fyz2             0.524510       0.770700
                          4       1   13fz3              0.524510       0.344667

                          5       1    2s                0.649053       0.515371

                          6       1    8px               0.700602       0.913649
                          6       1    8py               0.700602       0.913649
                          6       1    8pz               0.700602       0.913649

                          7       1    3s                1.364167       0.899624

                          8       1   12dx2              1.905484       5.086498
                          8       1   12dxy              1.905484       8.810073
                          8       1   12dxz              1.905484       8.810073
                          8       1   12dy2              1.905484       5.086498
                          8       1   12dyz              1.905484       8.810073
                          8       1   12dz2              1.905484       5.086498

                          9       1    9px               2.433823       4.333127
                          9       1    9py               2.433823       4.333127
                          9       1    9pz               2.433823       4.333127

                         10       1    4s                4.732710       2.286875

                         11       1   10px              11.930396      31.605210
                         11       1   10py              11.930396      31.605210
                         11       1   10pz              11.930396      31.605210

                         12       1    5s               15.386625       5.536912

                         13       1    6s               46.757872      12.743865

       Atomic covalent radius [Angstrom]:                                  0.820

       Atomic van der Waals radius [Angstrom]:                             1.920

     The atoms of this atomic kind are PAW atoms (GAPW):
       Hard Gaussian function radius:                                      1.512
       Rho0 radius:                                                        1.512
       Maximum GTO radius used for PAW projector construction:            24.566

     GAPW Soft Basis Set                                  aug-SZV-MOLOPT-ae_soft

       Number of orbital shell sets:                                           2
       Number of orbital shells:                                               6
       Number of primitive Cartesian functions:                                7
       Number of Cartesian basis functions:                                   15
       Number of spherical basis functions:                                   14
       Norm type:                                                              2

       Normalised Cartesian orbitals:

                        Set   Shell   Orbital            Exponent    Coefficient

                          1       1    1s                0.109280       0.032606
                                                         0.155613       0.000000
                                                         0.238409       0.144712
                                                         0.548949       0.113742
                                                         1.426820      -0.031435

                          1       2    2s                0.109280      -0.049098
                                                         0.155613      -0.119813
                                                         0.238409      -0.025283
                                                         0.548949       0.056653
                                                         1.426820       0.132404

                          1       3    2px               0.109280       0.009109
                                                         0.155613       0.000000
                                                         0.238409       0.101125
                                                         0.548949       0.281559
                                                         1.426820       0.386539
                          1       3    2py               0.109280       0.009109
                                                         0.155613       0.000000
                                                         0.238409       0.101125
                                                         0.548949       0.281559
                                                         1.426820       0.386539
                          1       3    2pz               0.109280       0.009109
                                                         0.155613       0.000000
                                                         0.238409       0.101125
                                                         0.548949       0.281559
                                                         1.426820       0.386539

                          1       4    3px               0.109280       0.062233
                                                         0.155613       0.035668
                                                         0.238409       0.015304
                                                         0.548949      -0.003054
                                                         1.426820       0.021875
                          1       4    3py               0.109280       0.062233
                                                         0.155613       0.035668
                                                         0.238409       0.015304
                                                         0.548949      -0.003054
                                                         1.426820       0.021875
                          1       4    3pz               0.109280       0.062233
                                                         0.155613       0.035668
                                                         0.238409       0.015304
                                                         0.548949      -0.003054
                                                         1.426820       0.021875

                          1       5    3dx2              0.109280       0.000986
                                                         0.155613       0.002022
                                                         0.238409       0.109458
                                                         0.548949       0.095099
                                                         1.426820       0.028232
                          1       5    3dxy              0.109280       0.001708
                                                         0.155613       0.003503
                                                         0.238409       0.189586
                                                         0.548949       0.164717
                                                         1.426820       0.048900
                          1       5    3dxz              0.109280       0.001708
                                                         0.155613       0.003503
                                                         0.238409       0.189586
                                                         0.548949       0.164717
                                                         1.426820       0.048900
                          1       5    3dy2              0.109280       0.000986
                                                         0.155613       0.002022
                                                         0.238409       0.109458
                                                         0.548949       0.095099
                                                         1.426820       0.028232
                          1       5    3dyz              0.109280       0.001708
                                                         0.155613       0.003503
                                                         0.238409       0.189586
                                                         0.548949       0.164717
                                                         1.426820       0.048900
                          1       5    3dz2              0.109280       0.000986
                                                         0.155613       0.002022
                                                         0.238409       0.109458
                                                         0.548949       0.095099
                                                         1.426820       0.028232

                          2       1    1s                3.462516       0.753460
                                                         1.426055       0.121219

     AE Potential information for                                            ALL

       Description:                                       All-electron potential
                                          Krack, Parrinello, PCCP 2, 2105 (2000)

       Gaussian exponent of the core charge distribution:               2.655410
       Electronic configuration (s p d ...):                           4   1   0


 MOLECULE KIND INFORMATION


 All atoms are their own molecule, skipping detailed information


 TOTAL NUMBERS AND MAXIMUM NUMBERS

  Total number of            - Atomic kinds:                                   1
                             - Atoms:                                          2
                             - Shell sets:                                     4
                             - Shells:                                        12
                             - Primitive Cartesian functions:                 26
                             - Cartesian basis functions:                     30
                             - Spherical basis functions:                     28

  Maximum angular momentum of the orbital basis functions:                     2


 MODULE QUICKSTEP: ATOMIC COORDINATES IN ANGSTROM

   Atom Kind Element         X             Y             Z       Z(eff)     Mass
      1    1 B     5     15.793777     15.000000     15.000000   5.0000  10.8110
      2    1 B     5     14.206223     15.000000     15.000000   5.0000  10.8110



 SCF PARAMETERS         Density guess:                                    ATOMIC
                        --------------------------------------------------------
                        max_scf:                                             500
                        max_scf_history:                                       0
                        max_diis:                                              4
                        --------------------------------------------------------
                        eps_scf:                                        1.00E-06
                        eps_scf_history:                                0.00E+00
                        eps_diis:                                       1.00E-01
                        eps_eigval:                                     1.00E-05
                        --------------------------------------------------------
                        level_shift [a.u.]:                             0.000000
                        added MOs                                        23    0
                        --------------------------------------------------------
                        Mixing method:                            BROYDEN_MIXING
                                                charge density mixing in g-space
                        --------------------------------------------------------
                        No outer SCF

 PW_GRID| Information for grid number                                          1
 PW_GRID| Grid distributed over                                    24 processors
 PW_GRID| Real space group dimensions                                    24    1
 PW_GRID| the grid is blocked:                                                NO
 PW_GRID| Cutoff [a.u.]                                                    250.0
 PW_GRID| spherical cutoff:                                                   NO
 PW_GRID|   Bounds   1           -202     202                Points:         405
 PW_GRID|   Bounds   2           -202     202                Points:         405
 PW_GRID|   Bounds   3           -202     202                Points:         405
 PW_GRID| Volume element (a.u.^3)  0.2743E-02     Volume (a.u.^3)    182205.0337
 PW_GRID| Grid span                                                    FULLSPACE
 PW_GRID|   Distribution                         Average         Max         Min
 PW_GRID|   G-Vectors                          2767921.9     2768175     2767770
 PW_GRID|   G-Rays                                6834.4        6835        6834
 PW_GRID|   Real Space Points                  2767921.9     2788425     2624400

 PW_GRID| Information for grid number                                          2
 PW_GRID| Number of the reference grid                                         1
 PW_GRID| Grid distributed over                                    24 processors
 PW_GRID| Real space group dimensions                                    24    1
 PW_GRID| the grid is blocked:                                                NO
 PW_GRID| Cutoff [a.u.]                                                     83.3
 PW_GRID| spherical cutoff:                                                   NO
 PW_GRID|   Bounds   1           -120     119                Points:         240
 PW_GRID|   Bounds   2           -120     119                Points:         240
 PW_GRID|   Bounds   3           -120     119                Points:         240
 PW_GRID| Volume element (a.u.^3)  0.1318E-01     Volume (a.u.^3)    182205.0337
 PW_GRID| Grid span                                                    FULLSPACE
 PW_GRID|   Distribution                         Average         Max         Min
 PW_GRID|   G-Vectors                           576000.0      576240      575760
 PW_GRID|   G-Rays                                2400.0        2401        2399
 PW_GRID|   Real Space Points                   576000.0      576000      576000

 PW_GRID| Information for grid number                                          3
 PW_GRID| Number of the reference grid                                         1
 PW_GRID| Grid distributed over                                    24 processors
 PW_GRID| Real space group dimensions                                    24    1
 PW_GRID| the grid is blocked:                                                NO
 PW_GRID| Cutoff [a.u.]                                                     27.8
 PW_GRID| spherical cutoff:                                                   NO
 PW_GRID|   Bounds   1            -67      67                Points:         135
 PW_GRID|   Bounds   2            -67      67                Points:         135
 PW_GRID|   Bounds   3            -67      67                Points:         135
 PW_GRID| Volume element (a.u.^3)  0.7406E-01     Volume (a.u.^3)    182205.0337
 PW_GRID| Grid span                                                    FULLSPACE
 PW_GRID|   Distribution                         Average         Max         Min
 PW_GRID|   G-Vectors                           102515.6      102735      102330
 PW_GRID|   G-Rays                                 759.4         761         758
 PW_GRID|   Real Space Points                   102515.6      109350       91125

 PW_GRID| Information for grid number                                          4
 PW_GRID| Number of the reference grid                                         1
 PW_GRID| Grid distributed over                                    24 processors
 PW_GRID| Real space group dimensions                                    24    1
 PW_GRID| the grid is blocked:                                                NO
 PW_GRID| Cutoff [a.u.]                                                      9.3
 PW_GRID| spherical cutoff:                                                   NO
 PW_GRID|   Bounds   1            -40      39                Points:          80
 PW_GRID|   Bounds   2            -40      39                Points:          80
 PW_GRID|   Bounds   3            -40      39                Points:          80
 PW_GRID| Volume element (a.u.^3)  0.3559         Volume (a.u.^3)    182205.0337
 PW_GRID| Grid span                                                    FULLSPACE
 PW_GRID|   Distribution                         Average         Max         Min
 PW_GRID|   G-Vectors                            21333.3       21360       21280
 PW_GRID|   G-Rays                                 266.7         267         266
 PW_GRID|   Real Space Points                    21333.3       25600       19200

 POISSON| Solver                                                         WAVELET
 POISSON| Wavelet| Scaling function                                           40
 POISSON| Periodicity                                                       NONE

 RS_GRID| Information for grid number                                          1
 RS_GRID|   Bounds   1           -202     202                Points:         405
 RS_GRID|   Bounds   2           -202     202                Points:         405
 RS_GRID|   Bounds   3           -202     202                Points:         405
 RS_GRID| Real space distribution over                                  4 groups
 RS_GRID| Real space distribution along direction                              2
 RS_GRID| Border size                                                         32
 RS_GRID| Real space distribution over                                  6 groups
 RS_GRID| Real space distribution along direction                              3
 RS_GRID| Border size                                                         32
 RS_GRID|   Distribution                         Average         Max         Min
 RS_GRID|   Planes                                 165.2         166         165
 RS_GRID|   Distribution                         Average         Max         Min
 RS_GRID|   Planes                                 131.5         132         131

 RS_GRID| Information for grid number                                          2
 RS_GRID|   Bounds   1           -120     119                Points:         240
 RS_GRID|   Bounds   2           -120     119                Points:         240
 RS_GRID|   Bounds   3           -120     119                Points:         240
 RS_GRID| Real space distribution over                                  4 groups
 RS_GRID| Real space distribution along direction                              2
 RS_GRID| Border size                                                         34
 RS_GRID| Real space distribution over                                  6 groups
 RS_GRID| Real space distribution along direction                              3
 RS_GRID| Border size                                                         34
 RS_GRID|   Distribution                         Average         Max         Min
 RS_GRID|   Planes                                 128.0         128         128
 RS_GRID|   Distribution                         Average         Max         Min
 RS_GRID|   Planes                                 108.0         108         108

 RS_GRID| Information for grid number                                          3
 RS_GRID|   Bounds   1            -67      67                Points:         135
 RS_GRID|   Bounds   2            -67      67                Points:         135
 RS_GRID|   Bounds   3            -67      67                Points:         135
 RS_GRID| Real space fully replicated
 RS_GRID| Group size                                                           1

 RS_GRID| Information for grid number                                          4
 RS_GRID|   Bounds   1            -40      39                Points:          80
 RS_GRID|   Bounds   2            -40      39                Points:          80
 RS_GRID|   Bounds   3            -40      39                Points:          80
 RS_GRID| Real space fully replicated
 RS_GRID| Group size                                                           1

  HFX_INFO| Replica ID:                                                        1
  HFX_INFO| FRACTION:                                               0.2500000000
  HFX_INFO| Interaction Potential:                                       COULOMB
  HFX_INFO| EPS_SCHWARZ:                                                 1.0E-10
  HFX_INFO| EPS_SCHWARZ_FORCES                                           1.0E-08
  HFX_INFO| EPS_STORAGE_SCALING:                                         1.0E+00
  HFX_INFO| NBINS:                                                            64
  HFX_INFO| BLOCK_SIZE:                                                        1
  HFX_INFO| Number of periodic shells considered:                           NONE
  HFX_INFO| Number of periodic cells considered:                            NONE

 
 RI-RPA| using GPW style
 

 OVERLAP MATRIX CONDITION NUMBER
 1-Norm Condition Number (Estimate)
   CN : |A|*|A^-1|:  4.590E+000 *  1.332E+002   = 6.114E+002  Log(1-CN):  2.7863
 1-Norm and 2-Norm Condition Numbers using Diagonalization
   CN : |A|*|A^-1|:  4.590E+000 *  1.332E+002   = 6.114E+002  Log(1-CN):  2.7863
   CN : max/min ev:  3.636E+000 /  1.176E-002   = 3.092E+002  Log(2-CN):  2.4903

 Number of electrons:                                                         10
 Number of occupied orbitals:                                                  5
 Number of molecular orbitals:                                                28

 Number of orbital functions:                                                 28
 Number of independent orbital functions:                                     28

 Extrapolation method: initial_guess

 Atomic guess: The first density matrix is obtained in terms of atomic orbitals
               and electronic configurations assigned to each atomic kind

 Guess for atomic kind: B

 Electronic structure
    Total number of core electrons                                          0.00
    Total number of valence electrons                                       5.00
    Total number of electrons                                               5.00
    Multiplicity                                                   not specified
    S      2.00  2.00
    P      1.00


 *******************************************************************************
                  Iteration          Convergence                     Energy [au]
 *******************************************************************************
                          1        0.612489E-01                 -24.304439508901
                          2        0.220484E-01                 -24.305945213911
                          3        0.367076E-03                 -24.306247196960
                          4        0.456899E-05                 -24.306247340970
                          5        0.241868E-07                 -24.306247340986

 Energy components [Hartree]           Total Energy ::          -24.306247340986
                                        Band Energy ::          -13.825803348850
                                     Kinetic Energy ::           23.970530113188
                                   Potential Energy ::          -48.276777454174
                                      Virial (-V/T) ::            2.014005415242
                                        Core Energy ::          -32.361048727638
                                          XC Energy ::           -3.546375173816
                                     Coulomb Energy ::           11.601176560468

 Orbital energies  State     L     Occupation   Energy[a.u.]          Energy[eV]

                       1     0          2.000      -6.531739         -177.737651
                       2     0          2.000      -0.324835           -8.839199

                       1     1          1.000      -0.112657           -3.065543


 Total Electron Density at R=0:                                        58.671969
 Re-scaling the density matrix to get the right number of electrons
                  # Electrons              Trace(P)               Scaling factor
                           10                10.000                        1.000


 SCF WAVEFUNCTION OPTIMIZATION

  Step     Update method      Time    Convergence         Total energy    Change
  ------------------------------------------------------------------------------

  HFX_MEM_INFO| Est. max. program size before HFX [MiB]:                    2123
  HFX_MEM_INFO| Number of cart. primitive ERI's calculated:            188947463
  HFX_MEM_INFO| Number of sph. ERI's calculated:                          230496
  HFX_MEM_INFO| Number of sph. ERI's stored in-core:                      230496
  HFX_MEM_INFO| Number of sph. ERI's stored on disk:                           0
  HFX_MEM_INFO| Number of sph. ERI's calculated on the fly:                    0
  HFX_MEM_INFO| Total memory consumption ERI's RAM [MiB]:                      2
  HFX_MEM_INFO| Whereof max-vals [MiB]:                                        1
  HFX_MEM_INFO| Total compression factor ERI's RAM:                         1.11
  HFX_MEM_INFO| Total memory consumption ERI's disk [MiB]:                     0
  HFX_MEM_INFO| Total compression factor ERI's disk:                        0.00
  HFX_MEM_INFO| Size of density/Fock matrix [MiB]:                             0
  HFX_MEM_INFO| Size of buffers [MiB]:                                         0
  HFX_MEM_INFO| Est. max. program size after HFX  [MiB]:                    2633

     1 NoMix/Diag. 0.10E+00    8.3     0.34372936       -49.3968786203 -4.94E+01
     2 Broy./Diag. 0.10E+00    4.7     0.03842345       -49.2120608744  1.85E-01
     3 Broy./Diag. 0.10E+00    5.0     0.00885436       -49.1549298990  5.71E-02
     4 Broy./Diag. 0.10E+00    4.9     0.02732052       -49.1349865079  1.99E-02
     5 Broy./Diag. 0.10E+00    4.8     0.00525240       -49.1938522065 -5.89E-02
     6 Broy./Diag. 0.10E+00    5.1     0.00522659       -49.2155792243 -2.17E-02
     7 Broy./Diag. 0.10E+00    5.3     0.00168850       -49.2353934642 -1.98E-02
     8 Broy./Diag. 0.10E+00    5.3     0.00049313       -49.2390712970 -3.68E-03
     9 Broy./Diag. 0.10E+00    5.4     0.00225107       -49.2361141292  2.96E-03
    10 Broy./Diag. 0.10E+00    5.5     0.00069721       -49.2334310409  2.68E-03
    11 Broy./Diag. 0.10E+00    5.5     0.00030612       -49.2294697892  3.96E-03
    12 Broy./Diag. 0.10E+00    5.6     0.00044357       -49.2292697385  2.00E-04
    13 Broy./Diag. 0.10E+00    5.6     0.00009038       -49.2299783761 -7.09E-04
    14 Broy./Diag. 0.10E+00    5.4     0.00053182       -49.2297850889  1.93E-04
    15 Broy./Diag. 0.10E+00    5.4     0.00021447       -49.2307856549 -1.00E-03
    16 Broy./Diag. 0.10E+00    5.4     0.00018234       -49.2313552110 -5.70E-04
    17 Broy./Diag. 0.10E+00    5.4     0.00009705       -49.2313068813  4.83E-05
    18 Broy./Diag. 0.10E+00    5.4     0.00002682       -49.2310771095  2.30E-04
    19 Broy./Diag. 0.10E+00    5.3     0.00007708       -49.2304148088  6.62E-04
    20 Broy./Diag. 0.10E+00    5.4     0.00003878       -49.2302003612  2.14E-04
    21 Broy./Diag. 0.10E+00    5.5     0.00001881       -49.2300276943  1.73E-04
    22 Broy./Diag. 0.10E+00    5.6     0.00007994       -49.2298886022  1.39E-04
    23 Broy./Diag. 0.10E+00    5.6     0.00003350       -49.2299117113 -2.31E-05
    24 Broy./Diag. 0.10E+00    5.6     0.00001477       -49.2299482980 -3.66E-05
    25 Broy./Diag. 0.10E+00    5.5     0.00007471       -49.2300699004 -1.22E-04
    26 Broy./Diag. 0.10E+00    5.6     0.00005970       -49.2301037139 -3.38E-05
    27 Broy./Diag. 0.10E+00    5.6     0.00004938       -49.2301143869 -1.07E-05
    28 Broy./Diag. 0.10E+00    5.5     0.00005461       -49.2301331714 -1.88E-05
    29 Broy./Diag. 0.10E+00    5.5     0.00004798       -49.2301527846 -1.96E-05
    30 Broy./Diag. 0.10E+00    5.4     0.00004388       -49.2301469503  5.83E-06
    31 Broy./Diag. 0.10E+00    5.4     0.00003482       -49.2301487592 -1.81E-06
    32 Broy./Diag. 0.10E+00    5.4     0.00002094       -49.2301438362  4.92E-06
    33 Broy./Diag. 0.10E+00    5.6     0.00001735       -49.2301561859 -1.23E-05
    34 Broy./Diag. 0.10E+00    5.4     0.00001668       -49.2301659447 -9.76E-06
    35 Broy./Diag. 0.10E+00    5.3     0.00002372       -49.2301474589  1.85E-05
    36 Broy./Diag. 0.10E+00    5.3     0.00002738       -49.2301540359 -6.58E-06
    37 Broy./Diag. 0.10E+00    5.4     0.00003964       -49.2301600744 -6.04E-06
    38 Broy./Diag. 0.10E+00    5.5     0.00006158       -49.2301874016 -2.73E-05
    39 Broy./Diag. 0.10E+00    5.5     0.00009510       -49.2301766397  1.08E-05
    40 Broy./Diag. 0.10E+00    5.6     0.00015017       -49.2301518260  2.48E-05
    41 Broy./Diag. 0.10E+00    5.6     0.00019101       -49.2300749501  7.69E-05
    42 Broy./Diag. 0.10E+00    5.5     0.00027811       -49.2300821993 -7.25E-06
    43 Broy./Diag. 0.10E+00    5.5     0.00041828       -49.2301036563 -2.15E-05
    44 Broy./Diag. 0.10E+00    5.5     0.00061071       -49.2301069131 -3.26E-06
    45 Broy./Diag. 0.10E+00    5.5     0.00085648       -49.2300804918  2.64E-05
    46 Broy./Diag. 0.10E+00    5.5     0.00125624       -49.2300777369  2.75E-06
    47 Broy./Diag. 0.10E+00    5.4     0.00185571       -49.2300829442 -5.21E-06
    48 Broy./Diag. 0.10E+00    5.4     0.00276020       -49.2300855447 -2.60E-06
    49 Broy./Diag. 0.10E+00    5.4     0.00410745       -49.2300742768  1.13E-05
    50 Broy./Diag. 0.10E+00    5.3     0.00609141       -49.2300485696  2.57E-05
    51 Broy./Diag. 0.10E+00    5.4     0.00898804       -49.2300576016 -9.03E-06
    52 Broy./Diag. 0.10E+00    5.4     0.01320143       -49.2300939324 -3.63E-05
    53 Broy./Diag. 0.10E+00    5.5     0.01905550       -49.2301126567 -1.87E-05
    54 Broy./Diag. 0.10E+00    5.5     0.02653392       -49.2300322732  8.04E-05
    55 Broy./Diag. 0.10E+00    5.7     0.03444337       -49.2299428820  8.94E-05
    56 Broy./Diag. 0.10E+00    5.7     0.03882454       -49.2297955682  1.47E-04
    57 Broy./Diag. 0.10E+00    5.6     0.05372516       -49.2294500169  3.46E-04
    58 Broy./Diag. 0.10E+00    5.5     0.06634144       -49.2287168548  7.33E-04
    59 Broy./Diag. 0.10E+00    5.5     0.06573703       -49.2274659352  1.25E-03
    60 Broy./Diag. 0.10E+00    5.4     0.05404082       -49.2258952507  1.57E-03
    61 Broy./Diag. 0.10E+00    5.5     0.03882983       -49.2243892490  1.51E-03
    62 Broy./Diag. 0.10E+00    5.4     0.02954186       -49.2231562849  1.23E-03
    63 Broy./Diag. 0.10E+00    5.4     0.02601784       -49.2221596026  9.97E-04
    64 Broy./Diag. 0.10E+00    5.4     0.02145083       -49.2215097030  6.50E-04
    65 Broy./Diag. 0.10E+00    5.4     0.01707416       -49.2211132697  3.96E-04
    66 Broy./Diag. 0.10E+00    5.6     0.01372184       -49.2210310859  8.22E-05
    67 Broy./Diag. 0.10E+00    5.6     0.01230621       -49.2219550417 -9.24E-04
    68 Broy./Diag. 0.10E+00    5.6     0.00899959       -49.2233010805 -1.35E-03
    69 Broy./Diag. 0.10E+00    5.5     0.00703255       -49.2240565226 -7.55E-04
    70 Broy./Diag. 0.10E+00    5.7     0.01429230       -49.2328374563 -8.78E-03
    71 Broy./Diag. 0.10E+00    5.5     0.01631896       -49.2439521821 -1.11E-02
    72 Broy./Diag. 0.10E+00    5.5     0.01775273       -49.2775463502 -3.36E-02
    73 Broy./Diag. 0.10E+00    5.5     0.02107246       -49.2734360480  4.11E-03
    74 Broy./Diag. 0.10E+00    5.4     0.04664366       -49.3078938031 -3.45E-02
    75 Broy./Diag. 0.10E+00    5.4     0.09049433       -49.4110435965 -1.03E-01
    76 Broy./Diag. 0.10E+00    5.5     0.05767797       -49.4144930848 -3.45E-03
    77 Broy./Diag. 0.10E+00    5.5     0.07346635       -49.2961109098  1.18E-01
    78 Broy./Diag. 0.10E+00    5.5     0.04795157       -49.3757499013 -7.96E-02
    79 Broy./Diag. 0.10E+00    5.4     0.06407515       -49.3828197757 -7.07E-03
    80 Broy./Diag. 0.10E+00    5.5     0.02742249       -49.3589693080  2.39E-02
    81 Broy./Diag. 0.10E+00    5.6     0.02329708       -49.3742936443 -1.53E-02
    82 Broy./Diag. 0.10E+00    5.7     0.04811346       -49.2875413579  8.68E-02
    83 Broy./Diag. 0.10E+00    5.6     0.05275823       -49.2209277347  6.66E-02
    84 Broy./Diag. 0.10E+00    5.6     0.02457502       -49.2232076635 -2.28E-03
    85 Broy./Diag. 0.10E+00    5.7     0.03213164       -49.2498477826 -2.66E-02
    86 Broy./Diag. 0.10E+00    5.7     0.03467263       -49.2777829864 -2.79E-02
    87 Broy./Diag. 0.10E+00    5.6     0.01596076       -49.2932230377 -1.54E-02
    88 Broy./Diag. 0.10E+00    5.5     0.02299919       -49.2869340038  6.29E-03
    89 Broy./Diag. 0.10E+00    5.6     0.03059054       -49.2759603274  1.10E-02
    90 Broy./Diag. 0.10E+00    5.5     0.02432098       -49.2748060880  1.15E-03
    91 Broy./Diag. 0.10E+00    5.4     0.04781116       -49.2794367786 -4.63E-03
    92 Broy./Diag. 0.10E+00    5.4     0.04224555       -49.2754277880  4.01E-03
    93 Broy./Diag. 0.10E+00    5.4     0.03592790       -49.2650180184  1.04E-02
    94 Broy./Diag. 0.10E+00    5.5     0.03337824       -49.2579376333  7.08E-03
    95 Broy./Diag. 0.10E+00    5.6     0.02184345       -49.2496187178  8.32E-03
    96 Broy./Diag. 0.10E+00    5.5     0.01177815       -49.2386583091  1.10E-02
    97 Broy./Diag. 0.10E+00    5.5     0.03935613       -49.2329206024  5.74E-03
    98 Broy./Diag. 0.10E+00    5.5     0.02728613       -49.2431406911 -1.02E-02
    99 Broy./Diag. 0.10E+00    5.4     0.02101960       -49.2523557412 -9.22E-03
   100 Broy./Diag. 0.10E+00    5.5     0.01952032       -49.2588767905 -6.52E-03
   101 Broy./Diag. 0.10E+00    5.5     0.03055477       -49.2630051075 -4.13E-03
   102 Broy./Diag. 0.10E+00    5.5     0.04309982       -49.2608824356  2.12E-03
   103 Broy./Diag. 0.10E+00    5.5     0.03532847       -49.2581275031  2.75E-03
   104 Broy./Diag. 0.10E+00    5.5     0.03461341       -49.2534470024  4.68E-03
   105 Broy./Diag. 0.10E+00    5.5     0.03822276       -49.2505852215  2.86E-03
   106 Broy./Diag. 0.10E+00    5.4     0.05579567       -49.2452141584  5.37E-03
   107 Broy./Diag. 0.10E+00    5.4     0.06873056       -49.2370263852  8.19E-03
   108 Broy./Diag. 0.10E+00    5.3     0.06354556       -49.2288284420  8.20E-03
   109 Broy./Diag. 0.10E+00    5.3     0.05387664       -49.2256870397  3.14E-03
   110 Broy./Diag. 0.10E+00    5.3     0.04527169       -49.2264410836 -7.54E-04
   111 Broy./Diag. 0.10E+00    5.5     0.03065665       -49.2264621569 -2.11E-05
   112 Broy./Diag. 0.10E+00    5.5     0.03739523       -49.2317870633 -5.32E-03
   113 Broy./Diag. 0.10E+00    5.6     0.07715262       -49.2200238718  1.18E-02
   114 Broy./Diag. 0.10E+00    5.5     0.06967717       -49.2514141843 -3.14E-02
   115 Broy./Diag. 0.10E+00    5.5     0.02188726       -49.2616937103 -1.03E-02
   116 Broy./Diag. 0.10E+00    5.6     0.02216593       -49.2617290624 -3.54E-05
   117 Broy./Diag. 0.10E+00    5.5     0.03818801       -49.2606544256  1.07E-03
   118 Broy./Diag. 0.10E+00    5.6     0.10853375       -49.2533493005  7.31E-03
   119 Broy./Diag. 0.10E+00    5.5     0.19699653       -49.2108783168  4.25E-02
   120 Broy./Diag. 0.10E+00    5.5     0.09642675       -49.0845398227  1.26E-01
   121 Broy./Diag. 0.10E+00    5.5     0.04621142       -49.0128949923  7.16E-02
   122 Broy./Diag. 0.10E+00    5.4     0.07196280       -49.0282567409 -1.54E-02
   123 Broy./Diag. 0.10E+00    5.4     0.05068105       -49.0597410119 -3.15E-02
   124 Broy./Diag. 0.10E+00    5.4     0.08467476       -49.0749658646 -1.52E-02
   125 Broy./Diag. 0.10E+00    5.5     0.07959345       -49.1493139624 -7.43E-02
   126 Broy./Diag. 0.10E+00    5.6     0.04716500       -49.1988476760 -4.95E-02
   127 Broy./Diag. 0.10E+00    5.7     0.04839097       -49.2144465918 -1.56E-02
   128 Broy./Diag. 0.10E+00    5.7     0.05763269       -49.2078845500  6.56E-03
   129 Broy./Diag. 0.10E+00    5.6     0.02497886       -49.2122431546 -4.36E-03
   130 Broy./Diag. 0.10E+00    5.6     0.02380292       -49.2108891490  1.35E-03
   131 Broy./Diag. 0.10E+00    5.6     0.16875894       -49.2640838930 -5.32E-02
   132 Broy./Diag. 0.10E+00    5.6     0.07036659       -49.2614336031  2.65E-03
   133 Broy./Diag. 0.10E+00    5.5     0.04051997       -49.1679265526  9.35E-02
   134 Broy./Diag. 0.10E+00    5.5     0.06401356       -49.1897623314 -2.18E-02
   135 Broy./Diag. 0.10E+00    5.5     0.04888958       -49.1987277251 -8.97E-03
   136 Broy./Diag. 0.10E+00    5.5     0.02414027       -49.2333007700 -3.46E-02
   137 Broy./Diag. 0.10E+00    5.5     0.03107551       -49.2710970894 -3.78E-02
   138 Broy./Diag. 0.10E+00    5.4     0.02986862       -49.2898530577 -1.88E-02
   139 Broy./Diag. 0.10E+00    5.4     0.03766435       -49.2941735111 -4.32E-03
   140 Broy./Diag. 0.10E+00    5.4     0.04956068       -49.3053851572 -1.12E-02
   141 Broy./Diag. 0.10E+00    5.5     0.08362688       -49.3094564857 -4.07E-03
   142 Broy./Diag. 0.10E+00    5.5     0.08627415       -49.3035645712  5.89E-03
   143 Broy./Diag. 0.10E+00    5.5     0.03484411       -49.2789361606  2.46E-02
   144 Broy./Diag. 0.10E+00    5.6     0.01521450       -49.2839923621 -5.06E-03
   145 Broy./Diag. 0.10E+00    5.6     0.02104013       -49.2702514760  1.37E-02
   146 Broy./Diag. 0.10E+00    5.5     0.02927984       -49.2624869439  7.76E-03
   147 Broy./Diag. 0.10E+00    5.5     0.02533524       -49.2658839002 -3.40E-03
   148 Broy./Diag. 0.10E+00    5.4     0.02364835       -49.2646983799  1.19E-03
   149 Broy./Diag. 0.10E+00    5.4     0.03331940       -49.2674021207 -2.70E-03
   150 Broy./Diag. 0.10E+00    5.5     0.03315605       -49.2513559286  1.60E-02
   151 Broy./Diag. 0.10E+00    5.4     0.04760790       -49.2547512440 -3.40E-03
   152 Broy./Diag. 0.10E+00    5.3     0.04672946       -49.2657219724 -1.10E-02
   153 Broy./Diag. 0.10E+00    5.4     0.04016016       -49.2746737569 -8.95E-03
   154 Broy./Diag. 0.10E+00    5.4     0.02563040       -49.2752730087 -5.99E-04
   155 Broy./Diag. 0.10E+00    5.6     0.02128520       -49.2658007604  9.47E-03
   156 Broy./Diag. 0.10E+00    5.5     0.04462702       -49.2911362302 -2.53E-02
   157 Broy./Diag. 0.10E+00    5.6     0.04456235       -49.3022370959 -1.11E-02
   158 Broy./Diag. 0.10E+00    5.6     0.04932612       -49.2834571508  1.88E-02
   159 Broy./Diag. 0.10E+00    5.5     0.06301832       -49.2734085342  1.00E-02
   160 Broy./Diag. 0.10E+00    5.6     0.05565847       -49.2688117566  4.60E-03
   161 Broy./Diag. 0.10E+00    5.6     0.04627356       -49.2696764407 -8.65E-04
   162 Broy./Diag. 0.10E+00    5.5     0.03918570       -49.2665944664  3.08E-03
   163 Broy./Diag. 0.10E+00    5.4     0.02846650       -49.2581593177  8.44E-03
   164 Broy./Diag. 0.10E+00    5.4     0.02333423       -49.2467891144  1.14E-02
   165 Broy./Diag. 0.10E+00    5.4     0.02215215       -49.2433318393  3.46E-03
   166 Broy./Diag. 0.10E+00    5.4     0.03508726       -49.2448289622 -1.50E-03
   167 Broy./Diag. 0.10E+00    5.4     0.03354036       -49.2535961462 -8.77E-03
   168 Broy./Diag. 0.10E+00    5.3     0.02348166       -49.2329918228  2.06E-02
   169 Broy./Diag. 0.10E+00    5.4     0.03083774       -49.2315919082  1.40E-03
   170 Broy./Diag. 0.10E+00    5.5     0.04956751       -49.2302153398  1.38E-03
   171 Broy./Diag. 0.10E+00    5.6     0.05465728       -49.2116323233  1.86E-02
   172 Broy./Diag. 0.10E+00    5.7     0.03772429       -49.2198738518 -8.24E-03
   173 Broy./Diag. 0.10E+00    5.5     0.02123395       -49.2433911483 -2.35E-02
   174 Broy./Diag. 0.10E+00    5.6     0.02321302       -49.2346120283  8.78E-03
   175 Broy./Diag. 0.10E+00    5.5     0.04349995       -49.2314880186  3.12E-03
   176 Broy./Diag. 0.10E+00    5.4     0.05478221       -49.2333754743 -1.89E-03
   177 Broy./Diag. 0.10E+00    5.5     0.03423530       -49.2155112508  1.79E-02
   178 Broy./Diag. 0.10E+00    5.4     0.04363954       -49.2089789520  6.53E-03
   179 Broy./Diag. 0.10E+00    5.4     0.02653664       -49.2116712071 -2.69E-03
   180 Broy./Diag. 0.10E+00    5.5     0.02888768       -49.2192364819 -7.57E-03
   181 Broy./Diag. 0.10E+00    5.3     0.03955344       -49.2213458666 -2.11E-03
   182 Broy./Diag. 0.10E+00    5.3     0.04155316       -49.2213506064 -4.74E-06
   183 Broy./Diag. 0.10E+00    5.4     0.03262912       -49.2215928465 -2.42E-04
   184 Broy./Diag. 0.10E+00    5.6     0.04286375       -49.2309700605 -9.38E-03
   185 Broy./Diag. 0.10E+00    5.7     0.05503038       -49.2415955180 -1.06E-02
   186 Broy./Diag. 0.10E+00    5.6     0.04380781       -49.2361316079  5.46E-03
   187 Broy./Diag. 0.10E+00    5.6     0.03654191       -49.2328509829  3.28E-03
   188 Broy./Diag. 0.10E+00    5.5     0.03059392       -49.2322719650  5.79E-04
   189 Broy./Diag. 0.10E+00    5.5     0.04445895       -49.2306725221  1.60E-03
   190 Broy./Diag. 0.10E+00    5.4     0.04249201       -49.2251811085  5.49E-03
   191 Broy./Diag. 0.10E+00    5.4     0.04702452       -49.2198429790  5.34E-03
   192 Broy./Diag. 0.10E+00    5.4     0.04639922       -49.2195424695  3.01E-04
   193 Broy./Diag. 0.10E+00    5.4     0.02838634       -49.2318521994 -1.23E-02
   194 Broy./Diag. 0.10E+00    5.3     0.02055211       -49.2318951724 -4.30E-05
   195 Broy./Diag. 0.10E+00    5.3     0.02086364       -49.2346398040 -2.74E-03
   196 Broy./Diag. 0.10E+00    5.4     0.03691536       -49.2107406229  2.39E-02
   197 Broy./Diag. 0.10E+00    5.5     0.04793646       -49.2050557146  5.68E-03
   198 Broy./Diag. 0.10E+00    5.6     0.03893955       -49.2069627235 -1.91E-03
   199 Broy./Diag. 0.10E+00    5.6     0.03210203       -49.2196770791 -1.27E-02
   200 Broy./Diag. 0.10E+00    5.6     0.03400712       -49.2161855825  3.49E-03
   201 Broy./Diag. 0.10E+00    5.5     0.05295371       -49.2366866073 -2.05E-02
   202 Broy./Diag. 0.10E+00    5.6     0.02861213       -49.2434858793 -6.80E-03
   203 Broy./Diag. 0.10E+00    5.6     0.02803984       -49.2402562110  3.23E-03
   204 Broy./Diag. 0.10E+00    5.6     0.03999905       -49.2165156551  2.37E-02
   205 Broy./Diag. 0.10E+00    5.5     0.04289866       -49.1984164138  1.81E-02
   206 Broy./Diag. 0.10E+00    5.5     0.04896117       -49.2101440256 -1.17E-02
   207 Broy./Diag. 0.10E+00    5.4     0.04567687       -49.2299621440 -1.98E-02
   208 Broy./Diag. 0.10E+00    5.4     0.03549507       -49.2466127183 -1.67E-02
   209 Broy./Diag. 0.10E+00    5.4     0.04602872       -49.2591899901 -1.26E-02
   210 Broy./Diag. 0.10E+00    5.3     0.03735855       -49.2563737293  2.82E-03
   211 Broy./Diag. 0.10E+00    5.3     0.03287224       -49.2499919231  6.38E-03
   212 Broy./Diag. 0.10E+00    5.4     0.02852602       -49.2434195611  6.57E-03
   213 Broy./Diag. 0.10E+00    5.6     0.02433508       -49.2351338922  8.29E-03
   214 Broy./Diag. 0.10E+00    5.5     0.01873653       -49.2248345191  1.03E-02
   215 Broy./Diag. 0.10E+00    5.5     0.01190386       -49.2216473450  3.19E-03
   216 Broy./Diag. 0.10E+00    5.6     0.01638008       -49.2261682385 -4.52E-03
   217 Broy./Diag. 0.10E+00    5.6     0.00909553       -49.2288315119 -2.66E-03
   218 Broy./Diag. 0.10E+00    5.5     0.01451049       -49.2359387870 -7.11E-03
   219 Broy./Diag. 0.10E+00    5.4     0.00750756       -49.2355373613  4.01E-04
   220 Broy./Diag. 0.10E+00    5.4     0.00325950       -49.2348875169  6.50E-04
   221 Broy./Diag. 0.10E+00    5.4     0.02985316       -49.2437172489 -8.83E-03
   222 Broy./Diag. 0.10E+00    5.3     0.05770296       -49.2635337387 -1.98E-02
   223 Broy./Diag. 0.10E+00    5.4     0.02858806       -49.2667854067 -3.25E-03
   224 Broy./Diag. 0.10E+00    5.3     0.02251068       -49.2588606433  7.92E-03
   225 Broy./Diag. 0.10E+00    5.3     0.02628088       -49.2533496883  5.51E-03
   226 Broy./Diag. 0.10E+00    5.4     0.02088431       -49.2554588876 -2.11E-03
   227 Broy./Diag. 0.10E+00    5.6     0.01117534       -49.2570183332 -1.56E-03
   228 Broy./Diag. 0.10E+00    5.5     0.01489718       -49.2551988832  1.82E-03
   229 Broy./Diag. 0.10E+00    5.7     0.01793462       -49.2548448494  3.54E-04
   230 Broy./Diag. 0.10E+00    5.6     0.02222853       -49.2581849305 -3.34E-03
   231 Broy./Diag. 0.10E+00    5.6     0.02416766       -49.2554448108  2.74E-03
   232 Broy./Diag. 0.10E+00    5.5     0.04459697       -49.2502225129  5.22E-03
   233 Broy./Diag. 0.10E+00    5.5     0.04789908       -49.2533204150 -3.10E-03
   234 Broy./Diag. 0.10E+00    5.4     0.05426295       -49.2557306722 -2.41E-03
   235 Broy./Diag. 0.10E+00    5.4     0.06073196       -49.2555158597  2.15E-04
   236 Broy./Diag. 0.10E+00    5.3     0.05597637       -49.2562369658 -7.21E-04
   237 Broy./Diag. 0.10E+00    5.3     0.04504046       -49.2565452036 -3.08E-04
   238 Broy./Diag. 0.10E+00    5.3     0.03610453       -49.2579362360 -1.39E-03
   239 Broy./Diag. 0.10E+00    5.3     0.03829894       -49.2515438686  6.39E-03
   240 Broy./Diag. 0.10E+00    5.4     0.03002941       -49.2441991980  7.34E-03
   241 Broy./Diag. 0.10E+00    5.5     0.03004448       -49.2385631680  5.64E-03
   242 Broy./Diag. 0.10E+00    5.6     0.02114418       -49.2388270894 -2.64E-04
   243 Broy./Diag. 0.10E+00    5.5     0.05334343       -49.2166335059  2.22E-02
   244 Broy./Diag. 0.10E+00    5.5     0.06267423       -49.2058265095  1.08E-02
   245 Broy./Diag. 0.10E+00    5.5     0.06047732       -49.1889155478  1.69E-02
   246 Broy./Diag. 0.10E+00    5.6     0.06808682       -49.2224844504 -3.36E-02
   247 Broy./Diag. 0.10E+00    5.6     0.08672139       -49.3147859658 -9.23E-02
   248 Broy./Diag. 0.10E+00    5.5     0.03650483       -49.3043778942  1.04E-02
   249 Broy./Diag. 0.10E+00    5.6     0.02970850       -49.3094644429 -5.09E-03
   250 Broy./Diag. 0.10E+00    5.5     0.01659179       -49.3214964710 -1.20E-02
   251 Broy./Diag. 0.10E+00    5.3     0.05705786       -49.3267479969 -5.25E-03
   252 Broy./Diag. 0.10E+00    5.4     0.06563554       -49.3276671350 -9.19E-04
   253 Broy./Diag. 0.10E+00    5.3     0.04649363       -49.2938221997  3.38E-02
   254 Broy./Diag. 0.10E+00    5.4     0.08428807       -49.2617107849  3.21E-02
   255 Broy./Diag. 0.10E+00    5.3     0.06780340       -49.2272185552  3.45E-02
   256 Broy./Diag. 0.10E+00    5.6     0.04485373       -49.2310854500 -3.87E-03
   257 Broy./Diag. 0.10E+00    5.5     0.05035823       -49.1907880811  4.03E-02
   258 Broy./Diag. 0.10E+00    5.5     0.04786361       -49.1603533055  3.04E-02
   259 Broy./Diag. 0.10E+00    5.4     0.06088438       -49.1404614384  1.99E-02
   260 Broy./Diag. 0.10E+00    5.4     0.06275872       -49.1455760862 -5.11E-03
   261 Broy./Diag. 0.10E+00    5.4     0.04648284       -49.1666127260 -2.10E-02
   262 Broy./Diag. 0.10E+00    5.3     0.07104321       -49.1787174514 -1.21E-02
   263 Broy./Diag. 0.10E+00    5.3     0.05445641       -49.1972090152 -1.85E-02
   264 Broy./Diag. 0.10E+00    5.5     0.01813599       -49.1910319003  6.18E-03
   265 Broy./Diag. 0.10E+00    5.5     0.02491289       -49.1776931156  1.33E-02
   266 Broy./Diag. 0.10E+00    5.5     0.03428498       -49.1847984013 -7.11E-03
   267 Broy./Diag. 0.10E+00    5.5     0.06176155       -49.1774395930  7.36E-03
   268 Broy./Diag. 0.10E+00    5.5     0.06172815       -49.1836728396 -6.23E-03
   269 Broy./Diag. 0.10E+00    5.4     0.03390382       -49.2050378514 -2.14E-02
   270 Broy./Diag. 0.10E+00    5.3     0.05855650       -49.1988762246  6.16E-03
   271 Broy./Diag. 0.10E+00    5.3     0.03571400       -49.2092355179 -1.04E-02
   272 Broy./Diag. 0.10E+00    5.5     0.07794156       -49.2405119980 -3.13E-02
   273 Broy./Diag. 0.10E+00    5.5     0.07411952       -49.2714916132 -3.10E-02
   274 Broy./Diag. 0.10E+00    5.5     0.07585953       -49.2782596769 -6.77E-03
   275 Broy./Diag. 0.10E+00    5.5     0.06166984       -49.2700067358  8.25E-03
   276 Broy./Diag. 0.10E+00    5.4     0.04896806       -49.2744108168 -4.40E-03
   277 Broy./Diag. 0.10E+00    5.6     0.01600140       -49.2747860746 -3.75E-04
   278 Broy./Diag. 0.10E+00    5.5     0.01190823       -49.2621472256  1.26E-02
   279 Broy./Diag. 0.10E+00    5.6     0.01658217       -49.2535259763  8.62E-03
   280 Broy./Diag. 0.10E+00    5.5     0.02130984       -49.2588926445 -5.37E-03
   281 Broy./Diag. 0.10E+00    5.5     0.01669669       -49.2568205729  2.07E-03
   282 Broy./Diag. 0.10E+00    5.4     0.02208371       -49.2480156733  8.80E-03
   283 Broy./Diag. 0.10E+00    5.4     0.01905226       -49.2425785861  5.44E-03
   284 Broy./Diag. 0.10E+00    5.4     0.01334156       -49.2342328874  8.35E-03
   285 Broy./Diag. 0.10E+00    5.6     0.01495184       -49.2321900356  2.04E-03
   286 Broy./Diag. 0.10E+00    5.5     0.00891939       -49.2354160643 -3.23E-03
   287 Broy./Diag. 0.10E+00    5.6     0.00969173       -49.2371211852 -1.71E-03
   288 Broy./Diag. 0.10E+00    5.5     0.01544684       -49.2378917403 -7.71E-04
   289 Broy./Diag. 0.10E+00    5.5     0.02125533       -49.2379133586 -2.16E-05
   290 Broy./Diag. 0.10E+00    5.4     0.02794466       -49.2381647061 -2.51E-04
   291 Broy./Diag. 0.10E+00    5.5     0.03647372       -49.2381987922 -3.41E-05
   292 Broy./Diag. 0.10E+00    5.5     0.04247044       -49.2374019975  7.97E-04
   293 Broy./Diag. 0.10E+00    5.6     0.04859682       -49.2355881334  1.81E-03
   294 Broy./Diag. 0.10E+00    5.5     0.06305032       -49.2325062745  3.08E-03
   295 Broy./Diag. 0.10E+00    5.5     0.06470544       -49.2290879246  3.42E-03
   296 Broy./Diag. 0.10E+00    5.5     0.05548551       -49.2259365348  3.15E-03
   297 Broy./Diag. 0.10E+00    5.5     0.04103519       -49.2244990466  1.44E-03
   298 Broy./Diag. 0.10E+00    5.4     0.02968454       -49.2202253186  4.27E-03
   299 Broy./Diag. 0.10E+00    5.4     0.02501718       -49.2202991574 -7.38E-05
   300 Broy./Diag. 0.10E+00    5.6     0.02218755       -49.2218039545 -1.50E-03
   301 Broy./Diag. 0.10E+00    5.6     0.02098964       -49.2240899823 -2.29E-03
   302 Broy./Diag. 0.10E+00    5.5     0.02864554       -49.2300265909 -5.94E-03
   303 Broy./Diag. 0.10E+00    5.4     0.02989614       -49.2335167587 -3.49E-03
   304 Broy./Diag. 0.10E+00    5.6     0.03041616       -49.2352860870 -1.77E-03
   305 Broy./Diag. 0.10E+00    5.7     0.03340072       -49.2386095027 -3.32E-03
   306 Broy./Diag. 0.10E+00    5.6     0.02183263       -49.2491152392 -1.05E-02
   307 Broy./Diag. 0.10E+00    5.5     0.02477106       -49.2434547419  5.66E-03
   308 Broy./Diag. 0.10E+00    5.5     0.02855349       -49.2281785564  1.53E-02
   309 Broy./Diag. 0.10E+00    5.4     0.02436379       -49.2295137413 -1.34E-03
   310 Broy./Diag. 0.10E+00    5.4     0.02241046       -49.2162024393  1.33E-02
   311 Broy./Diag. 0.10E+00    5.4     0.03005028       -49.2274219177 -1.12E-02
   312 Broy./Diag. 0.10E+00    5.4     0.03025233       -49.2157906238  1.16E-02
   313 Broy./Diag. 0.10E+00    5.5     0.03014815       -49.2129864421  2.80E-03
   314 Broy./Diag. 0.10E+00    5.4     0.07413758       -49.1864097956  2.66E-02
   315 Broy./Diag. 0.10E+00    5.6     0.08261458       -49.1858233938  5.86E-04
   316 Broy./Diag. 0.10E+00    5.4     0.07959876       -49.1746799763  1.11E-02
   317 Broy./Diag. 0.10E+00    5.5     0.04580401       -49.1807232898 -6.04E-03
   318 Broy./Diag. 0.10E+00    5.4     0.04255757       -49.1775543863  3.17E-03
   319 Broy./Diag. 0.10E+00    5.4     0.04096656       -49.1606632599  1.69E-02
   320 Broy./Diag. 0.10E+00    5.4     0.03278046       -49.1623322361 -1.67E-03
   321 Broy./Diag. 0.10E+00    5.7     0.03497447       -49.2003817570 -3.80E-02
   322 Broy./Diag. 0.10E+00    5.5     0.02708239       -49.2349227711 -3.45E-02
   323 Broy./Diag. 0.10E+00    5.6     0.02009776       -49.2403870133 -5.46E-03
   324 Broy./Diag. 0.10E+00    5.4     0.04706149       -49.2554198558 -1.50E-02
   325 Broy./Diag. 0.10E+00    5.4     0.09560974       -49.2599197808 -4.50E-03
   326 Broy./Diag. 0.10E+00    5.4     0.09808853       -49.2566672736  3.25E-03
   327 Broy./Diag. 0.10E+00    5.4     0.06562987       -49.2748446337 -1.82E-02
   328 Broy./Diag. 0.10E+00    5.4     0.05459966       -49.3043581672 -2.95E-02
   329 Broy./Diag. 0.10E+00    5.4     0.10079075       -49.2779873738  2.64E-02
   330 Broy./Diag. 0.10E+00    5.4     0.03374294       -49.3290042917 -5.10E-02
   331 Broy./Diag. 0.10E+00    5.4     0.08747710       -49.3445214526 -1.55E-02
   332 Broy./Diag. 0.10E+00    5.5     0.03103422       -49.2611621383  8.34E-02
   333 Broy./Diag. 0.10E+00    5.6     0.07351679       -49.2075692405  5.36E-02
   334 Broy./Diag. 0.10E+00    5.5     0.05509315       -49.2246520997 -1.71E-02
   335 Broy./Diag. 0.10E+00    5.5     0.05557902       -49.2325077915 -7.86E-03
   336 Broy./Diag. 0.10E+00    5.6     0.05518301       -49.2285346199  3.97E-03
   337 Broy./Diag. 0.10E+00    5.6     0.09372527       -49.2129586364  1.56E-02
   338 Broy./Diag. 0.10E+00    5.7     0.08335057       -49.1789003941  3.41E-02
   339 Broy./Diag. 0.10E+00    5.6     0.08485465       -49.1445725486  3.43E-02
   340 Broy./Diag. 0.10E+00    5.4     0.05832177       -49.1336388219  1.09E-02
   341 Broy./Diag. 0.10E+00    5.4     0.04391246       -49.1453587910 -1.17E-02
   342 Broy./Diag. 0.10E+00    5.3     0.04244742       -49.1662953054 -2.09E-02
[...]
   418 Broy./Diag. 0.10E+00    5.4     0.05904266       -49.1922437806  8.85E-03
   419 Broy./Diag. 0.10E+00    5.5     0.03426972       -49.1759485557  1.63E-02
   420 Broy./Diag. 0.10E+00    5.3     0.04873503       -49.1853088891 -9.36E-03
   421 Broy./Diag. 0.10E+00    5.3     0.04060778       -49.1936379805 -8.33E-03
   422 Broy./Diag. 0.10E+00    5.3     0.03529254       -49.1694586389  2.42E-02
   423 Broy./Diag. 0.10E+00    5.3     0.02688342       -49.1537077311  1.58E-02
   424 Broy./Diag. 0.10E+00    5.5     0.08123929       -49.1774657990 -2.38E-02
   425 Broy./Diag. 0.10E+00    5.5     0.09054932       -49.1898316944 -1.24E-02
   426 Broy./Diag. 0.10E+00    5.5     0.05705471       -49.1936104425 -3.78E-03
   427 Broy./Diag. 0.10E+00    5.6     0.11509007       -49.1993166108 -5.71E-03
   428 Broy./Diag. 0.10E+00    5.5     0.11013504       -49.2272470204 -2.79E-02
   429 Broy./Diag. 0.10E+00    5.6     0.07449943       -49.2415348055 -1.43E-02
   430 Broy./Diag. 0.10E+00    5.4     0.04727106       -49.2621005935 -2.06E-02
   431 Broy./Diag. 0.10E+00    5.4     0.03995164       -49.2844514601 -2.24E-02
   432 Broy./Diag. 0.10E+00    5.4     0.03005630       -49.2905306886 -6.08E-03
   433 Broy./Diag. 0.10E+00    5.4     0.03761791       -49.3036321649 -1.31E-02
   434 Broy./Diag. 0.10E+00    5.4     0.03684648       -49.3075963750 -3.96E-03
   435 Broy./Diag. 0.10E+00    5.5     0.04210091       -49.3111416198 -3.55E-03
   436 Broy./Diag. 0.10E+00    5.3     0.03912036       -49.3098936425  1.25E-03
   437 Broy./Diag. 0.10E+00    5.3     0.03648057       -49.3042081212  5.69E-03
   438 Broy./Diag. 0.10E+00    5.3     0.04107790       -49.3041634577  4.47E-05
   439 Broy./Diag. 0.10E+00    5.3     0.03749329       -49.2943483108  9.82E-03
   440 Broy./Diag. 0.10E+00    5.4     0.03042693       -49.2837636919  1.06E-02
   441 Broy./Diag. 0.10E+00    5.5     0.02465975       -49.2781648849  5.60E-03
   442 Broy./Diag. 0.10E+00    5.6     0.02377413       -49.2779296160  2.35E-04
   443 Broy./Diag. 0.10E+00    5.5     0.03952537       -49.2822355294 -4.31E-03
   444 Broy./Diag. 0.10E+00    5.6     0.03195822       -49.2851403005 -2.90E-03
   445 Broy./Diag. 0.10E+00    5.4     0.02799034       -49.3015037367 -1.64E-02
   446 Broy./Diag. 0.10E+00    5.4     0.04861723       -49.2863111901  1.52E-02
   447 Broy./Diag. 0.10E+00    5.4     0.03912774       -49.2697653952  1.65E-02
   448 Broy./Diag. 0.10E+00    5.4     0.12159327       -49.2762146472 -6.45E-03
   449 Broy./Diag. 0.10E+00    5.4     0.04381391       -49.2920772949 -1.59E-02
   450 Broy./Diag. 0.10E+00    5.4     0.02850172       -49.2785002922  1.36E-02
   451 Broy./Diag. 0.10E+00    5.3     0.04315243       -49.2736557652  4.84E-03
   452 Broy./Diag. 0.10E+00    5.3     0.02912747       -49.2929800148 -1.93E-02
   453 Broy./Diag. 0.10E+00    5.3     0.03323512       -49.2923719589  6.08E-04
   454 Broy./Diag. 0.10E+00    5.3     0.04046093       -49.2912601802  1.11E-03
   455 Broy./Diag. 0.10E+00    5.4     0.05420997       -49.2844090558  6.85E-03
   456 Broy./Diag. 0.10E+00    5.5     0.07615705       -49.2869240109 -2.51E-03
   457 Broy./Diag. 0.10E+00    5.6     0.09845390       -49.2897585194 -2.83E-03
   458 Broy./Diag. 0.10E+00    5.6     0.06955099       -49.2601918956  2.96E-02
   459 Broy./Diag. 0.10E+00    5.6     0.07062200       -49.2731214269 -1.29E-02
   460 Broy./Diag. 0.10E+00    5.7     0.04200032       -49.2982916383 -2.52E-02
   461 Broy./Diag. 0.10E+00    5.4     0.03126898       -49.3027673836 -4.48E-03
   462 Broy./Diag. 0.10E+00    5.5     0.02427530       -49.3006173870  2.15E-03
   463 Broy./Diag. 0.10E+00    5.4     0.02205539       -49.2948614302  5.76E-03
   464 Broy./Diag. 0.10E+00    5.4     0.03703653       -49.2773391591  1.75E-02
   465 Broy./Diag. 0.10E+00    5.4     0.06367177       -49.2614735544  1.59E-02
   466 Broy./Diag. 0.10E+00    5.4     0.07554137       -49.2362318955  2.52E-02
   467 Broy./Diag. 0.10E+00    5.3     0.02437135       -49.1982208140  3.80E-02
   468 Broy./Diag. 0.10E+00    5.4     0.07136495       -49.2109333352 -1.27E-02
   469 Broy./Diag. 0.10E+00    5.3     0.10131260       -49.2665353752 -5.56E-02
   470 Broy./Diag. 0.10E+00    5.4     0.09418507       -49.2980288817 -3.15E-02
   471 Broy./Diag. 0.10E+00    5.5     0.06974922       -49.2961635545  1.87E-03
   472 Broy./Diag. 0.10E+00    5.5     0.04421538       -49.2804235894  1.57E-02
   473 Broy./Diag. 0.10E+00    5.7     0.03225870       -49.2749502705  5.47E-03
   474 Broy./Diag. 0.10E+00    5.6     0.01782159       -49.2854069796 -1.05E-02
   475 Broy./Diag. 0.10E+00    5.6     0.03020205       -49.2693708061  1.60E-02
   476 Broy./Diag. 0.10E+00    5.5     0.02534502       -49.2755195955 -6.15E-03
   477 Broy./Diag. 0.10E+00    5.6     0.00589983       -49.2823489662 -6.83E-03
   478 Broy./Diag. 0.10E+00    5.5     0.00792880       -49.2742473109  8.10E-03
   479 Broy./Diag. 0.10E+00    5.4     0.01100776       -49.2622903885  1.20E-02
   480 Broy./Diag. 0.10E+00    5.4     0.02177429       -49.2552321923  7.06E-03
   481 Broy./Diag. 0.10E+00    5.4     0.03128817       -49.2347022434  2.05E-02
   482 Broy./Diag. 0.10E+00    5.3     0.03806396       -49.2343084676  3.94E-04
   483 Broy./Diag. 0.10E+00    5.4     0.07438293       -49.2690606596 -3.48E-02
   484 Broy./Diag. 0.10E+00    5.4     0.04834662       -49.2849362827 -1.59E-02
   485 Broy./Diag. 0.10E+00    5.5     0.07253297       -49.2975334962 -1.26E-02
   486 Broy./Diag. 0.10E+00    5.5     0.05489504       -49.2866133626  1.09E-02
   487 Broy./Diag. 0.10E+00    5.6     0.05799729       -49.2785394391  8.07E-03
   488 Broy./Diag. 0.10E+00    5.6     0.07630711       -49.2618669056  1.67E-02
   489 Broy./Diag. 0.10E+00    5.6     0.12976018       -49.2215500082  4.03E-02
   490 Broy./Diag. 0.10E+00    5.5     0.09742721       -49.1576624174  6.39E-02
   491 Broy./Diag. 0.10E+00    5.4     0.04104408       -49.1348243472  2.28E-02
   492 Broy./Diag. 0.10E+00    5.5     0.02749949       -49.1484644336 -1.36E-02
   493 Broy./Diag. 0.10E+00    5.5     0.02075645       -49.1543588021 -5.89E-03
   494 Broy./Diag. 0.10E+00    5.3     0.01624799       -49.1657366440 -1.14E-02
   495 Broy./Diag. 0.10E+00    5.3     0.03399243       -49.1148071224  5.09E-02
   496 Broy./Diag. 0.10E+00    5.3     0.05018867       -49.1095070614  5.30E-03
   497 Broy./Diag. 0.10E+00    5.3     0.25507094       -49.1759276913 -6.64E-02
   498 Broy./Diag. 0.10E+00    5.3     0.09262576       -49.2971228323 -1.21E-01
   499 Broy./Diag. 0.10E+00    5.4     0.11588771       -49.3323568961 -3.52E-02
   500 Broy./Diag. 0.10E+00    5.6     0.09227654       -49.3309031302  1.45E-03

  Leaving inner SCF loop after reaching   500 steps.


  Electronic density on regular grids:         -7.1462258579        2.8537741421
  Core density on regular grids:               10.0000000000        0.0000000000
  Hard and soft densities (Lebedev):          -13.5336046060      -10.6620454443
  Total Rho_soft + Rho1_hard - Rho1_soft      -10.0177850196
  Total charge density (r-space):              -0.0177850196
  Total Rho_soft + Rho0_soft (g-space):        -0.0177850803

  Overlap energy of the core charge distribution:               0.00000845868521
  Self energy of the core charge distribution:                -32.50467561761386
  Core Hamiltonian energy:                                    -13.40315567376680
  Hartree energy:                                              11.42424825734115
  Exchange-correlation energy:                                 -2.12966378092828
  Hartree-Fock Exchange energy:                                -1.87864459461337

  GAPW| Exc from hard and soft atomic rho1:                    -3.87442703146859
  GAPW| local Eh = 1 center integrals:                         -6.96459314786232

  Total energy:                                               -49.33090313022687

 *******************************************************************************
 *   ___                                                                       *
 *  /   \                                                                      *
 * [ABORT]                                                                     *
 *  \___/     SCF run NOT converged. To continue the calculation regardless,   *
 *    |             please set the keyword IGNORE_CONVERGENCE_FAILURE.         *
 *  O/|                                                                        *
 * /| |                                                                        *
 * / \                                                            qs_scf.F:611 *
 *******************************************************************************


 ===== Routine Calling Stack ===== 

            3 scf_env_do_scf
            2 qs_energies
            1 CP2K

 *******************************************************************************
 *   ___                                                                       *
 *  /   \                                                                      *
 * [ABORT]                                                                     *
 *  \___/     SCF run NOT converged. To continue the calculation regardless,   *
 *    |             please set the keyword IGNORE_CONVERGENCE_FAILURE.         *
 *  O/|                                                                        *
 * /| |                                                                        *
 * / \                                                            qs_scf.F:611 *
 *******************************************************************************


 ===== Routine Calling Stack ===== 

            3 scf_env_do_scf
            2 qs_energies
            1 CP2K

 *******************************************************************************
 *   ___                                                                       *
 *  /   \                                                                      *
 * [ABORT]                                                                     *
 *  \___/     SCF run NOT converged. To continue the calculation regardless,   *
 *    |             please set the keyword IGNORE_CONVERGENCE_FAILURE.         *
 *  O/|                                                                        *
 * /| |                                                                        *
 * / \                                                            qs_scf.F:611 *
 *******************************************************************************


 ===== Routine Calling Stack ===== 

            3 scf_env_do_scf
            2 qs_energies
            1 CP2K

 *******************************************************************************
 *   ___                                                                       *
 *  /   \                                                                      *
 * [ABORT]                                                                     *
 *  \___/     SCF run NOT converged. To continue the calculation regardless,   *
 *    |             please set the keyword IGNORE_CONVERGENCE_FAILURE.         *
 *  O/|                                                                        *
 * /| |                                                                        *
 * / \                                                            qs_scf.F:611 *
 *******************************************************************************


 ===== Routine Calling Stack ===== 

            3 scf_env_do_scf
            2 qs_energies
            1 CP2K

 *******************************************************************************
 *   ___                                                                       *
 *  /   \                                                                      *
 * [ABORT]                                                                     *
 *  \___/     SCF run NOT converged. To continue the calculation regardless,   *
 *    |             please set the keyword IGNORE_CONVERGENCE_FAILURE.         *
 *  O/|                                                                        *
 * /| |                                                                        *
 * / \                                                            qs_scf.F:611 *
 *******************************************************************************


 ===== Routine Calling Stack ===== 

            3 scf_env_do_scf
            2 qs_energies
            1 CP2K

 *******************************************************************************
 *   ___                                                                       *
 *  /   \                                                                      *
 * [ABORT]                                                                     *
 *  \___/     SCF run NOT converged. To continue the calculation regardless,   *
 *    |             please set the keyword IGNORE_CONVERGENCE_FAILURE.         *
 *  O/|                                                                        *
 * /| |                                                                        *
 * / \                                                            qs_scf.F:611 *
 *******************************************************************************


 ===== Routine Calling Stack ===== 

            3 scf_env_do_scf
            2 qs_energies
            1 CP2K

 *******************************************************************************
 *   ___                                                                       *
 *  /   \                                                                      *
 * [ABORT]                                                                     *
 *  \___/     SCF run NOT converged. To continue the calculation regardless,   *
 *    |             please set the keyword IGNORE_CONVERGENCE_FAILURE.         *
 *  O/|                                                                        *
 * /| |                                                                        *
 * / \                                                            qs_scf.F:611 *
 *******************************************************************************


 ===== Routine Calling Stack ===== 

            3 scf_env_do_scf
            2 qs_energies
            1 CP2K

 *******************************************************************************
 *   ___                                                                       *
 *  /   \                                                                      *
 * [ABORT]                                                                     *
 *  \___/     SCF run NOT converged. To continue the calculation regardless,   *
 *    |             please set the keyword IGNORE_CONVERGENCE_FAILURE.         *
 *  O/|                                                                        *
 * /| |                                                                        *
 * / \                                                            qs_scf.F:611 *
 *******************************************************************************


 ===== Routine Calling Stack ===== 

            3 scf_env_do_scf
            2 qs_energies
            1 CP2K

 *******************************************************************************
 *   ___                                                                       *
 *  /   \                                                                      *
 * [ABORT]                                                                     *
 *  \___/     SCF run NOT converged. To continue the calculation regardless,   *
 *    |             please set the keyword IGNORE_CONVERGENCE_FAILURE.         *
 *  O/|                                                                        *
 * /| |                                                                        *
 * / \                                                            qs_scf.F:611 *
 *******************************************************************************


 ===== Routine Calling Stack ===== 

            3 scf_env_do_scf
            2 qs_energies
            1 CP2K

 *******************************************************************************
 *   ___                                                                       *
 *  /   \                                                                      *
 * [ABORT]                                                                     *
 *  \___/     SCF run NOT converged. To continue the calculation regardless,   *
 *    |             please set the keyword IGNORE_CONVERGENCE_FAILURE.         *
 *  O/|                                                                        *
 * /| |                                                                        *
 * / \                                                            qs_scf.F:611 *
 *******************************************************************************


 ===== Routine Calling Stack ===== 

            3 scf_env_do_scf
            2 qs_energies
            1 CP2K

 *******************************************************************************
 *   ___                                                                       *
 *  /   \                                                                      *
 * [ABORT]                                                                     *
 *  \___/     SCF run NOT converged. To continue the calculation regardless,   *
 *    |             please set the keyword IGNORE_CONVERGENCE_FAILURE.         *
 *  O/|                                                                        *
 * /| |                                                                        *
 * / \                                                            qs_scf.F:611 *
 *******************************************************************************


 ===== Routine Calling Stack ===== 

            3 scf_env_do_scf
            2 qs_energies
            1 CP2K

 *******************************************************************************
 *   ___                                                                       *
 *  /   \                                                                      *
 * [ABORT]                                                                     *
 *  \___/     SCF run NOT converged. To continue the calculation regardless,   *
 *    |             please set the keyword IGNORE_CONVERGENCE_FAILURE.         *
 *  O/|                                                                        *
 * /| |                                                                        *
 * / \                                                            qs_scf.F:611 *
 *******************************************************************************


 ===== Routine Calling Stack ===== 

            3 scf_env_do_scf
            2 qs_energies
            1 CP2K

 *******************************************************************************
 *   ___                                                                       *
 *  /   \                                                                      *
 * [ABORT]                                                                     *
 *  \___/     SCF run NOT converged. To continue the calculation regardless,   *
 *    |             please set the keyword IGNORE_CONVERGENCE_FAILURE.         *
 *  O/|                                                                        *
 * /| |                                                                        *
 * / \                                                            qs_scf.F:611 *
 *******************************************************************************


 ===== Routine Calling Stack ===== 

            3 scf_env_do_scf
            2 qs_energies
            1 CP2K
