 DBCSR| CPU Multiplication driver                                           BLAS (U)
 DBCSR| Multrec recursion limit                                              512 (U)
 DBCSR| Multiplication stack size                                           1000 (D)
 DBCSR| Maximum elements for images                                    UNLIMITED (U)
 DBCSR| Multiplicative factor virtual images                                   1 (U)
 DBCSR| Use multiplication densification                                       T (D)
 DBCSR| Multiplication size stacks                                             3 (U)
 DBCSR| Use memory pool for CPU allocation                                     F (U)
 DBCSR| Number of 3D layers                                               SINGLE (U)
 DBCSR| Use MPI memory allocation                                              F (U)
 DBCSR| Use RMA algorithm                                                      F (U)
 DBCSR| Use Communication thread                                               T (U)
 DBCSR| Communication thread load                                             75 (D)
 DBCSR| MPI: My process id                                                     0
 DBCSR| MPI: Number of processes                                              24
 DBCSR| OMP: Current number of threads                                         4
 DBCSR| OMP: Max number of threads                                             4
 DBCSR| Split modifier for TAS multiplication algorithm                  1.0E+00 (U)


  **** **** ******  **  PROGRAM STARTED AT               2025-03-03 01:26:52.607
 ***** ** ***  *** **   PROGRAM STARTED ON                          i01r06c06s02
 **    ****   ******    PROGRAM STARTED BY                               di38fab
 ***** **    ** ** **   PROGRAM PROCESS ID                               1953813
  **** **  *******  **  PROGRAM STARTED IN /hppfs/scratch/04/di38fab/05_MOL/W4-1
                                           1+ALK/b2/SZVSR

 CP2K| version string:                 CP2K version 2025.1 (Development Version)
 CP2K| source code revision number:                                  git:47877ba
 CP2K| cp2kflags: omp libint fftw3 libxc parallel scalapack max_contr=4         
 CP2K| is freely available from                            https://www.cp2k.org/
 CP2K| Program compiled at                          Thu Feb 20 16:00:34 CET 2025
 CP2K| Program compiled on                                               login04
 CP2K| Program compiled for                                        Supermuc-foss
 CP2K| Data directory path          /hppfs/work/pn36zo/di38fab/newcp2k/cp2k/data
 CP2K| Input file name                                                    GW.inp

 GLOBAL| Force Environment number                                              1
 GLOBAL| Basis set file name            /hppfs/scratch/04/di38fab/04_TMD/BASIS_A
 GLOBAL| Potential file name            /hppfs/work/pn36zo/di38fab/cp2k/data/ALL
 GLOBAL| MM Potential file name                                     MM_POTENTIAL
 GLOBAL| Coordinate file name                                      __STD_INPUT__
 GLOBAL| Method name                                                        CP2K
 GLOBAL| Project name                                                       MoS2
 GLOBAL| Run type                                                         ENERGY
 GLOBAL| FFT library                                                       FFTW3
 GLOBAL| Diagonalization library                                       ScaLAPACK
 GLOBAL| DGEMM library                                                      BLAS
 GLOBAL| Orthonormality check for eigenvectors                          DISABLED
 GLOBAL| Matrix multiplication library                                 ScaLAPACK
 GLOBAL| All-to-all communication in single precision                          F
 GLOBAL| FFTs using library dependent lengths                                  F
 GLOBAL| Grid backend                                                       AUTO
 GLOBAL| Global print level                                               MEDIUM
 GLOBAL| MPI I/O enabled                                                       T
 GLOBAL| Total number of message passing processes                            24
 GLOBAL| Number of threads for this process                                    4
 GLOBAL| This output is from process                                           0
 GLOBAL| OpenMP stack size per thread (OMP_STACKSIZE)                    default
 GLOBAL| CPU model name             Intel(R) Xeon(R) Platinum 8174 CPU @ 3.10GHz

 MEMORY| system memory details [Kb]
 MEMORY|                        rank 0           min           max       average
 MEMORY| MemTotal             98436664      98436664      98436664      98436664
 MEMORY| MemFree              84017220      83898316      84017220      83957789
 MEMORY| Buffers                     0             0             0             0
 MEMORY| Cached                2387204       2387204       2402944       2395074
 MEMORY| Slab                  1227504       1226716       1227504       1227110
 MEMORY| SReclaimable           270756        266700        270756        268728
 MEMORY| MemLikelyFree        86675180      86567960      86675180      86621591


 *** Fundamental physical constants (SI units) ***

 *** Literature: B. J. Mohr and B. N. Taylor,
 ***             CODATA recommended values of the fundamental physical
 ***             constants: 2006, Web Version 5.1
 ***             http://physics.nist.gov/constants

 Speed of light in vacuum [m/s]                             2.99792458000000E+08
 Magnetic constant or permeability of vacuum [N/A**2]       1.25663706143592E-06
 Electric constant or permittivity of vacuum [F/m]          8.85418781762039E-12
 Planck constant (h) [J*s]                                  6.62606896000000E-34
 Planck constant (h-bar) [J*s]                              1.05457162825177E-34
 Elementary charge [C]                                      1.60217648700000E-19
 Electron mass [kg]                                         9.10938215000000E-31
 Electron g factor [ ]                                     -2.00231930436220E+00
 Proton mass [kg]                                           1.67262163700000E-27
 Fine-structure constant                                    7.29735253760000E-03
 Rydberg constant [1/m]                                     1.09737315685270E+07
 Avogadro constant [1/mol]                                  6.02214179000000E+23
 Boltzmann constant [J/K]                                   1.38065040000000E-23
 Atomic mass unit [kg]                                      1.66053878200000E-27
 Bohr radius [m]                                            5.29177208590000E-11

 *** Conversion factors ***

 [u] -> [a.u.]                                              1.82288848426455E+03
 [Angstrom] -> [Bohr] = [a.u.]                              1.88972613288564E+00
 [a.u.] = [Bohr] -> [Angstrom]                              5.29177208590000E-01
 [a.u.] -> [s]                                              2.41888432650478E-17
 [a.u.] -> [fs]                                             2.41888432650478E-02
 [a.u.] -> [J]                                              4.35974393937059E-18
 [a.u.] -> [N]                                              8.23872205491840E-08
 [a.u.] -> [K]                                              3.15774647902944E+05
 [a.u.] -> [kJ/mol]                                         2.62549961709828E+03
 [a.u.] -> [kcal/mol]                                       6.27509468713739E+02
 [a.u.] -> [Pa]                                             2.94210107994716E+13
 [a.u.] -> [bar]                                            2.94210107994716E+08
 [a.u.] -> [atm]                                            2.90362800883016E+08
 [a.u.] -> [eV]                                             2.72113838565563E+01
 [a.u.] -> [Hz]                                             6.57968392072181E+15
 [a.u.] -> [1/cm] (wave numbers)                            2.19474631370540E+05
 [a.u./Bohr**2] -> [1/cm]                                   5.14048714338585E+03
 

 CELL_TOP| Volume [angstrom^3]:                                     27000.000000
 CELL_TOP| Vector a [angstrom    30.000     0.000     0.000   |a| =    30.000000
 CELL_TOP| Vector b [angstrom     0.000    30.000     0.000   |b| =    30.000000
 CELL_TOP| Vector c [angstrom     0.000     0.000    30.000   |c| =    30.000000
 CELL_TOP| Angle (b,c), alpha [degree]:                                90.000000
 CELL_TOP| Angle (a,c), beta  [degree]:                                90.000000
 CELL_TOP| Angle (a,b), gamma [degree]:                                90.000000
 CELL_TOP| Numerically orthorhombic:                                         YES
 CELL_TOP| Periodicity                                                      NONE

 GENERATE|  Preliminary Number of Bonds generated:                             0
 GENERATE|  Achieved consistency in connectivity generation.

 CELL| Volume [angstrom^3]:                                         27000.000000
 CELL| Vector a [angstrom]:      30.000     0.000     0.000   |a| =    30.000000
 CELL| Vector b [angstrom]:       0.000    30.000     0.000   |b| =    30.000000
 CELL| Vector c [angstrom]:       0.000     0.000    30.000   |c| =    30.000000
 CELL| Angle (b,c), alpha [degree]:                                    90.000000
 CELL| Angle (a,c), beta  [degree]:                                    90.000000
 CELL| Angle (a,b), gamma [degree]:                                    90.000000
 CELL| Numerically orthorhombic:                                             YES
 CELL| Periodicity                                                          NONE

 CELL_REF| Volume [angstrom^3]:                                     27000.000000
 CELL_REF| Vector a [angstrom    30.000     0.000     0.000   |a| =    30.000000
 CELL_REF| Vector b [angstrom     0.000    30.000     0.000   |b| =    30.000000
 CELL_REF| Vector c [angstrom     0.000     0.000    30.000   |c| =    30.000000
 CELL_REF| Angle (b,c), alpha [degree]:                                90.000000
 CELL_REF| Angle (a,c), beta  [degree]:                                90.000000
 CELL_REF| Angle (a,b), gamma [degree]:                                90.000000
 CELL_REF| Numerically orthorhombic:                                         YES
 CELL_REF| Periodicity                                                      NONE

 *******************************************************************************
 *******************************************************************************
 **                                                                           **
 **     #####                         ##              ##                      **
 **    ##   ##            ##          ##              ##                      **
 **   ##     ##                       ##            ######                    **
 **   ##     ##  ##   ##  ##   #####  ##  ##   ####   ##    #####    #####    **
 **   ##     ##  ##   ##  ##  ##      ## ##   ##      ##   ##   ##  ##   ##   **
 **   ##  ## ##  ##   ##  ##  ##      ####     ###    ##   ######   ######    **
 **    ##  ###   ##   ##  ##  ##      ## ##      ##   ##   ##       ##        **
 **     #######   #####   ##   #####  ##  ##  ####    ##    #####   ##        **
 **           ##                                                    ##        **
 **                                                                           **
 **                                                ... make the atoms dance   **
 **                                                                           **
 **            Copyright (C) by CP2K developers group (2000-2025)             **
 **                      J. Chem. Phys. 152, 194103 (2020)                    **
 **                                                                           **
 *******************************************************************************

 DFT| Spin restricted Kohn-Sham (RKS) calculation                            RKS
 DFT| Multiplicity                                                             1
 DFT| Number of spin states                                                    1
 DFT| Charge                                                                   0
 DFT| Self-interaction correction (SIC)                                       NO
 DFT| Cutoffs: density                                              1.000000E-10
 DFT|          gradient                                             1.000000E-10
 DFT|          tau                                                  1.000000E-10
 DFT|          cutoff_smoothing_range                               0.000000E+00
 DFT| XC density smoothing                                                  NONE
 DFT| XC derivatives                                                          PW

 FUNCTIONAL| PBE:
 FUNCTIONAL| J.P.Perdew, K.Burke, M.Ernzerhof, Phys. Rev. Letter, vol. 77, n 18,
 FUNCTIONAL|  pp. 3865-3868, (1996)sx=0.750sc=1.000{spin unpolarized}           


 QS| Method:                                                                GAPW
 QS| Density plane wave grid type                        NON-SPHERICAL FULLSPACE
 QS| Number of grid levels:                                                    4
 QS| Density cutoff [a.u.]:                                                250.0
 QS| Multi grid cutoff [a.u.]: 1) grid level                               250.0
 QS|                           2) grid level                                83.3
 QS|                           3) grid level                                27.8
 QS|                           4) grid level                                 9.3
 QS| Grid level progression factor:                                          3.0
 QS| Relative density cutoff [a.u.]:                                        50.0
 QS| Interaction thresholds: eps_pgf_orb:                                1.0E-12
 QS|                         eps_filter_matrix:                          0.0E+00
 QS|                         eps_core_charge:                            1.0E-14
 QS|                         eps_rho_gspace:                             1.0E-12
 QS|                         eps_rho_rspace:                             1.0E-12
 QS|                         eps_gvg_rspace:                             1.0E-06
 QS|                         eps_ppl:                                    1.0E-02
 QS|                         eps_ppnl:                                   1.0E-08
 QS| GAPW|      One center basis from orbital basis primitives
 QS| GAPW|                   eps_fit:                                    1.0E-04
 QS| GAPW|                   eps_iso:                                    1.0E-12
 QS| GAPW|                   eps_svd:                                    1.0E-08
 QS| GAPW|                   eps_cpc:                                    1.0E-12
 QS| GAPW|   atom-r-grid: quadrature:                                     GC_LOG
 QS| GAPW|      atom-s-grid:  max l :                                          4
 QS| GAPW|      max_l_rho0 :                                                   2


 ATOMIC KIND INFORMATION

  1. Atomic kind: B                                     Number of atoms:       2

     Orbital Basis Set                                         aug-SZV-MOLOPT-ae

       Number of orbital shell sets:                                           2
       Number of orbital shells:                                               6
       Number of primitive Cartesian functions:                               13
       Number of Cartesian basis functions:                                   15
       Number of spherical basis functions:                                   14
       Norm type:                                                              2

       Normalised Cartesian orbitals:

                        Set   Shell   Orbital            Exponent    Coefficient

                          1       1    1s                0.109280       0.032606
                                                         0.155613       0.000000
                                                         0.238409       0.144712
                                                         0.548949       0.113742
                                                         1.426820      -0.031435
                                                         4.590809      -0.105038
                                                        23.194561      -0.099829

                          1       2    2s                0.109280      -0.049098
                                                         0.155613      -0.119813
                                                         0.238409      -0.025283
                                                         0.548949       0.056653
                                                         1.426820       0.132404
                                                         4.590809       0.000000
                                                        23.194561       0.000000

                          1       3    2px               0.109280       0.009109
                                                         0.155613       0.000000
                                                         0.238409       0.101125
                                                         0.548949       0.281559
                                                         1.426820       0.386539
                                                         4.590809       0.360915
                                                        23.194561       0.272788
                          1       3    2py               0.109280       0.009109
                                                         0.155613       0.000000
                                                         0.238409       0.101125
                                                         0.548949       0.281559
                                                         1.426820       0.386539
                                                         4.590809       0.360915
                                                        23.194561       0.272788
                          1       3    2pz               0.109280       0.009109
                                                         0.155613       0.000000
                                                         0.238409       0.101125
                                                         0.548949       0.281559
                                                         1.426820       0.386539
                                                         4.590809       0.360915
                                                        23.194561       0.272788

                          1       4    3px               0.109280       0.062233
                                                         0.155613       0.035668
                                                         0.238409       0.015304
                                                         0.548949      -0.003054
                                                         1.426820       0.021875
                                                         4.590809       0.000000
                                                        23.194561       0.000000
                          1       4    3py               0.109280       0.062233
                                                         0.155613       0.035668
                                                         0.238409       0.015304
                                                         0.548949      -0.003054
                                                         1.426820       0.021875
                                                         4.590809       0.000000
                                                        23.194561       0.000000
                          1       4    3pz               0.109280       0.062233
                                                         0.155613       0.035668
                                                         0.238409       0.015304
                                                         0.548949      -0.003054
                                                         1.426820       0.021875
                                                         4.590809       0.000000
                                                        23.194561       0.000000

                          1       5    3dx2              0.109280       0.000986
                                                         0.155613       0.002022
                                                         0.238409       0.109458
                                                         0.548949       0.095099
                                                         1.426820       0.028232
                                                         4.590809       0.000000
                                                        23.194561       0.000000
                          1       5    3dxy              0.109280       0.001708
                                                         0.155613       0.003503
                                                         0.238409       0.189586
                                                         0.548949       0.164717
                                                         1.426820       0.048900
                                                         4.590809       0.000000
                                                        23.194561       0.000000
                          1       5    3dxz              0.109280       0.001708
                                                         0.155613       0.003503
                                                         0.238409       0.189586
                                                         0.548949       0.164717
                                                         1.426820       0.048900
                                                         4.590809       0.000000
                                                        23.194561       0.000000
                          1       5    3dy2              0.109280       0.000986
                                                         0.155613       0.002022
                                                         0.238409       0.109458
                                                         0.548949       0.095099
                                                         1.426820       0.028232
                                                         4.590809       0.000000
                                                        23.194561       0.000000
                          1       5    3dyz              0.109280       0.001708
                                                         0.155613       0.003503
                                                         0.238409       0.189586
                                                         0.548949       0.164717
                                                         1.426820       0.048900
                                                         4.590809       0.000000
                                                        23.194561       0.000000
                          1       5    3dz2              0.109280       0.000986
                                                         0.155613       0.002022
                                                         0.238409       0.109458
                                                         0.548949       0.095099
                                                         1.426820       0.028232
                                                         4.590809       0.000000
                                                        23.194561       0.000000

                          2       1    1s              506.011837       0.696781
                                                        92.776716       1.051665
                                                        25.955582       1.381280
                                                         8.916443       1.362748
                                                         3.462516       0.753460
                                                         1.426055       0.121219

     RI Auxiliary Basis Set             RI_aug-SZV-MOLOPT-ae_N_RI_025_s_p_d_f_g_

       Number of orbital shell sets:                                           9
       Number of orbital shells:                                               9
       Number of primitive Cartesian functions:                                9
       Number of Cartesian basis functions:                                   29
       Number of spherical basis functions:                                   25
       Norm type:                                                              2

       Normalised Cartesian orbitals:

                        Set   Shell   Orbital            Exponent    Coefficient

                          1       1    1s                0.250341       0.252237

                          2       1    5px               0.273284       0.281648
                          2       1    5py               0.273284       0.281648
                          2       1    5pz               0.273284       0.281648

                          3       1    8dx2              0.455299       0.415363
                          3       1    8dxy              0.455299       0.719430
                          3       1    8dxz              0.455299       0.719430
                          3       1    8dy2              0.455299       0.415363
                          3       1    8dyz              0.455299       0.719430
                          3       1    8dz2              0.455299       0.415363

                          4       1    9fx3              0.675974       0.609953
                          4       1    9fx2y             0.675974       1.363897
                          4       1    9fx2z             0.675974       1.363897
                          4       1    9fxy2             0.675974       1.363897
                          4       1    9fxyz             0.675974       2.362339
                          4       1    9fxz2             0.675974       1.363897
                          4       1    9fy3              0.675974       0.609953
                          4       1    9fy2z             0.675974       1.363897
                          4       1    9fyz2             0.675974       1.363897
                          4       1    9fz3              0.675974       0.609953

                          5       1    6px               0.737183       0.973664
                          5       1    6py               0.737183       0.973664
                          5       1    6pz               0.737183       0.973664

                          6       1    2s                0.787813       0.595974

                          7       1    3s                5.974522       2.723563

                          8       1    7px               7.247300      16.949636
                          8       1    7py               7.247300      16.949636
                          8       1    7pz               7.247300      16.949636

                          9       1    4s               47.432595      12.881539

       Atomic covalent radius [Angstrom]:                                  0.820

       Atomic van der Waals radius [Angstrom]:                             1.920

     The atoms of this atomic kind are PAW atoms (GAPW):
       Hard Gaussian function radius:                                      1.512
       Rho0 radius:                                                        1.512
       Maximum GTO radius used for PAW projector construction:            24.566

     GAPW Soft Basis Set                                  aug-SZV-MOLOPT-ae_soft

       Number of orbital shell sets:                                           2
       Number of orbital shells:                                               6
       Number of primitive Cartesian functions:                                7
       Number of Cartesian basis functions:                                   15
       Number of spherical basis functions:                                   14
       Norm type:                                                              2

       Normalised Cartesian orbitals:

                        Set   Shell   Orbital            Exponent    Coefficient

                          1       1    1s                0.109280       0.032606
                                                         0.155613       0.000000
                                                         0.238409       0.144712
                                                         0.548949       0.113742
                                                         1.426820      -0.031435

                          1       2    2s                0.109280      -0.049098
                                                         0.155613      -0.119813
                                                         0.238409      -0.025283
                                                         0.548949       0.056653
                                                         1.426820       0.132404

                          1       3    2px               0.109280       0.009109
                                                         0.155613       0.000000
                                                         0.238409       0.101125
                                                         0.548949       0.281559
                                                         1.426820       0.386539
                          1       3    2py               0.109280       0.009109
                                                         0.155613       0.000000
                                                         0.238409       0.101125
                                                         0.548949       0.281559
                                                         1.426820       0.386539
                          1       3    2pz               0.109280       0.009109
                                                         0.155613       0.000000
                                                         0.238409       0.101125
                                                         0.548949       0.281559
                                                         1.426820       0.386539

                          1       4    3px               0.109280       0.062233
                                                         0.155613       0.035668
                                                         0.238409       0.015304
                                                         0.548949      -0.003054
                                                         1.426820       0.021875
                          1       4    3py               0.109280       0.062233
                                                         0.155613       0.035668
                                                         0.238409       0.015304
                                                         0.548949      -0.003054
                                                         1.426820       0.021875
                          1       4    3pz               0.109280       0.062233
                                                         0.155613       0.035668
                                                         0.238409       0.015304
                                                         0.548949      -0.003054
                                                         1.426820       0.021875

                          1       5    3dx2              0.109280       0.000986
                                                         0.155613       0.002022
                                                         0.238409       0.109458
                                                         0.548949       0.095099
                                                         1.426820       0.028232
                          1       5    3dxy              0.109280       0.001708
                                                         0.155613       0.003503
                                                         0.238409       0.189586
                                                         0.548949       0.164717
                                                         1.426820       0.048900
                          1       5    3dxz              0.109280       0.001708
                                                         0.155613       0.003503
                                                         0.238409       0.189586
                                                         0.548949       0.164717
                                                         1.426820       0.048900
                          1       5    3dy2              0.109280       0.000986
                                                         0.155613       0.002022
                                                         0.238409       0.109458
                                                         0.548949       0.095099
                                                         1.426820       0.028232
                          1       5    3dyz              0.109280       0.001708
                                                         0.155613       0.003503
                                                         0.238409       0.189586
                                                         0.548949       0.164717
                                                         1.426820       0.048900
                          1       5    3dz2              0.109280       0.000986
                                                         0.155613       0.002022
                                                         0.238409       0.109458
                                                         0.548949       0.095099
                                                         1.426820       0.028232

                          2       1    1s                3.462516       0.753460
                                                         1.426055       0.121219

     AE Potential information for                                            ALL

       Description:                                       All-electron potential
                                          Krack, Parrinello, PCCP 2, 2105 (2000)

       Gaussian exponent of the core charge distribution:               2.655410
       Electronic configuration (s p d ...):                           4   1   0


 MOLECULE KIND INFORMATION


 All atoms are their own molecule, skipping detailed information


 TOTAL NUMBERS AND MAXIMUM NUMBERS

  Total number of            - Atomic kinds:                                   1
                             - Atoms:                                          2
                             - Shell sets:                                     4
                             - Shells:                                        12
                             - Primitive Cartesian functions:                 26
                             - Cartesian basis functions:                     30
                             - Spherical basis functions:                     28

  Maximum angular momentum of the orbital basis functions:                     2


 MODULE QUICKSTEP: ATOMIC COORDINATES IN ANGSTROM

   Atom Kind Element         X             Y             Z       Z(eff)     Mass
      1    1 B     5     15.793777     15.000000     15.000000   5.0000  10.8110
      2    1 B     5     14.206223     15.000000     15.000000   5.0000  10.8110



 SCF PARAMETERS         Density guess:                                    ATOMIC
                        --------------------------------------------------------
                        max_scf:                                             500
                        max_scf_history:                                       0
                        max_diis:                                              4
                        --------------------------------------------------------
                        eps_scf:                                        1.00E-06
                        eps_scf_history:                                0.00E+00
                        eps_diis:                                       1.00E-01
                        eps_eigval:                                     1.00E-05
                        --------------------------------------------------------
                        level_shift [a.u.]:                             0.000000
                        added MOs                                        23    0
                        --------------------------------------------------------
                        Mixing method:                            BROYDEN_MIXING
                                                charge density mixing in g-space
                        --------------------------------------------------------
                        No outer SCF

 PW_GRID| Information for grid number                                          1
 PW_GRID| Grid distributed over                                    24 processors
 PW_GRID| Real space group dimensions                                    24    1
 PW_GRID| the grid is blocked:                                                NO
 PW_GRID| Cutoff [a.u.]                                                    250.0
 PW_GRID| spherical cutoff:                                                   NO
 PW_GRID|   Bounds   1           -202     202                Points:         405
 PW_GRID|   Bounds   2           -202     202                Points:         405
 PW_GRID|   Bounds   3           -202     202                Points:         405
 PW_GRID| Volume element (a.u.^3)  0.2743E-02     Volume (a.u.^3)    182205.0337
 PW_GRID| Grid span                                                    FULLSPACE
 PW_GRID|   Distribution                         Average         Max         Min
 PW_GRID|   G-Vectors                          2767921.9     2768175     2767770
 PW_GRID|   G-Rays                                6834.4        6835        6834
 PW_GRID|   Real Space Points                  2767921.9     2788425     2624400

 PW_GRID| Information for grid number                                          2
 PW_GRID| Number of the reference grid                                         1
 PW_GRID| Grid distributed over                                    24 processors
 PW_GRID| Real space group dimensions                                    24    1
 PW_GRID| the grid is blocked:                                                NO
 PW_GRID| Cutoff [a.u.]                                                     83.3
 PW_GRID| spherical cutoff:                                                   NO
 PW_GRID|   Bounds   1           -120     119                Points:         240
 PW_GRID|   Bounds   2           -120     119                Points:         240
 PW_GRID|   Bounds   3           -120     119                Points:         240
 PW_GRID| Volume element (a.u.^3)  0.1318E-01     Volume (a.u.^3)    182205.0337
 PW_GRID| Grid span                                                    FULLSPACE
 PW_GRID|   Distribution                         Average         Max         Min
 PW_GRID|   G-Vectors                           576000.0      576240      575760
 PW_GRID|   G-Rays                                2400.0        2401        2399
 PW_GRID|   Real Space Points                   576000.0      576000      576000

 PW_GRID| Information for grid number                                          3
 PW_GRID| Number of the reference grid                                         1
 PW_GRID| Grid distributed over                                    24 processors
 PW_GRID| Real space group dimensions                                    24    1
 PW_GRID| the grid is blocked:                                                NO
 PW_GRID| Cutoff [a.u.]                                                     27.8
 PW_GRID| spherical cutoff:                                                   NO
 PW_GRID|   Bounds   1            -67      67                Points:         135
 PW_GRID|   Bounds   2            -67      67                Points:         135
 PW_GRID|   Bounds   3            -67      67                Points:         135
 PW_GRID| Volume element (a.u.^3)  0.7406E-01     Volume (a.u.^3)    182205.0337
 PW_GRID| Grid span                                                    FULLSPACE
 PW_GRID|   Distribution                         Average         Max         Min
 PW_GRID|   G-Vectors                           102515.6      102735      102330
 PW_GRID|   G-Rays                                 759.4         761         758
 PW_GRID|   Real Space Points                   102515.6      109350       91125

 PW_GRID| Information for grid number                                          4
 PW_GRID| Number of the reference grid                                         1
 PW_GRID| Grid distributed over                                    24 processors
 PW_GRID| Real space group dimensions                                    24    1
 PW_GRID| the grid is blocked:                                                NO
 PW_GRID| Cutoff [a.u.]                                                      9.3
 PW_GRID| spherical cutoff:                                                   NO
 PW_GRID|   Bounds   1            -40      39                Points:          80
 PW_GRID|   Bounds   2            -40      39                Points:          80
 PW_GRID|   Bounds   3            -40      39                Points:          80
 PW_GRID| Volume element (a.u.^3)  0.3559         Volume (a.u.^3)    182205.0337
 PW_GRID| Grid span                                                    FULLSPACE
 PW_GRID|   Distribution                         Average         Max         Min
 PW_GRID|   G-Vectors                            21333.3       21360       21280
 PW_GRID|   G-Rays                                 266.7         267         266
 PW_GRID|   Real Space Points                    21333.3       25600       19200

 POISSON| Solver                                                         WAVELET
 POISSON| Wavelet| Scaling function                                           40
 POISSON| Periodicity                                                       NONE

 RS_GRID| Information for grid number                                          1
 RS_GRID|   Bounds   1           -202     202                Points:         405
 RS_GRID|   Bounds   2           -202     202                Points:         405
 RS_GRID|   Bounds   3           -202     202                Points:         405
 RS_GRID| Real space distribution over                                  4 groups
 RS_GRID| Real space distribution along direction                              2
 RS_GRID| Border size                                                         32
 RS_GRID| Real space distribution over                                  6 groups
 RS_GRID| Real space distribution along direction                              3
 RS_GRID| Border size                                                         32
 RS_GRID|   Distribution                         Average         Max         Min
 RS_GRID|   Planes                                 165.2         166         165
 RS_GRID|   Distribution                         Average         Max         Min
 RS_GRID|   Planes                                 131.5         132         131

 RS_GRID| Information for grid number                                          2
 RS_GRID|   Bounds   1           -120     119                Points:         240
 RS_GRID|   Bounds   2           -120     119                Points:         240
 RS_GRID|   Bounds   3           -120     119                Points:         240
 RS_GRID| Real space distribution over                                  4 groups
 RS_GRID| Real space distribution along direction                              2
 RS_GRID| Border size                                                         34
 RS_GRID| Real space distribution over                                  6 groups
 RS_GRID| Real space distribution along direction                              3
 RS_GRID| Border size                                                         34
 RS_GRID|   Distribution                         Average         Max         Min
 RS_GRID|   Planes                                 128.0         128         128
 RS_GRID|   Distribution                         Average         Max         Min
 RS_GRID|   Planes                                 108.0         108         108

 RS_GRID| Information for grid number                                          3
 RS_GRID|   Bounds   1            -67      67                Points:         135
 RS_GRID|   Bounds   2            -67      67                Points:         135
 RS_GRID|   Bounds   3            -67      67                Points:         135
 RS_GRID| Real space fully replicated
 RS_GRID| Group size                                                           1

 RS_GRID| Information for grid number                                          4
 RS_GRID|   Bounds   1            -40      39                Points:          80
 RS_GRID|   Bounds   2            -40      39                Points:          80
 RS_GRID|   Bounds   3            -40      39                Points:          80
 RS_GRID| Real space fully replicated
 RS_GRID| Group size                                                           1

  HFX_INFO| Replica ID:                                                        1
  HFX_INFO| FRACTION:                                               0.2500000000
  HFX_INFO| Interaction Potential:                                       COULOMB
  HFX_INFO| EPS_SCHWARZ:                                                 1.0E-10
  HFX_INFO| EPS_SCHWARZ_FORCES                                           1.0E-08
  HFX_INFO| EPS_STORAGE_SCALING:                                         1.0E+00
  HFX_INFO| NBINS:                                                            64
  HFX_INFO| BLOCK_SIZE:                                                        1
  HFX_INFO| Number of periodic shells considered:                           NONE
  HFX_INFO| Number of periodic cells considered:                            NONE

 
 RI-RPA| using GPW style
 

 OVERLAP MATRIX CONDITION NUMBER
 1-Norm Condition Number (Estimate)
   CN : |A|*|A^-1|:  4.590E+000 *  1.332E+002   = 6.114E+002  Log(1-CN):  2.7863
 1-Norm and 2-Norm Condition Numbers using Diagonalization
   CN : |A|*|A^-1|:  4.590E+000 *  1.332E+002   = 6.114E+002  Log(1-CN):  2.7863
   CN : max/min ev:  3.636E+000 /  1.176E-002   = 3.092E+002  Log(2-CN):  2.4903

 Number of electrons:                                                         10
 Number of occupied orbitals:                                                  5
 Number of molecular orbitals:                                                28

 Number of orbital functions:                                                 28
 Number of independent orbital functions:                                     28

 Extrapolation method: initial_guess

 Atomic guess: The first density matrix is obtained in terms of atomic orbitals
               and electronic configurations assigned to each atomic kind

 Guess for atomic kind: B

 Electronic structure
    Total number of core electrons                                          0.00
    Total number of valence electrons                                       5.00
    Total number of electrons                                               5.00
    Multiplicity                                                   not specified
    S      2.00  2.00
    P      1.00


 *******************************************************************************
                  Iteration          Convergence                     Energy [au]
 *******************************************************************************
                          1        0.612489E-01                 -24.304439508901
                          2        0.220484E-01                 -24.305945213911
                          3        0.367076E-03                 -24.306247196960
                          4        0.456899E-05                 -24.306247340970
                          5        0.241868E-07                 -24.306247340986

 Energy components [Hartree]           Total Energy ::          -24.306247340986
                                        Band Energy ::          -13.825803348850
                                     Kinetic Energy ::           23.970530113188
                                   Potential Energy ::          -48.276777454174
                                      Virial (-V/T) ::            2.014005415242
                                        Core Energy ::          -32.361048727638
                                          XC Energy ::           -3.546375173816
                                     Coulomb Energy ::           11.601176560468

 Orbital energies  State     L     Occupation   Energy[a.u.]          Energy[eV]

                       1     0          2.000      -6.531739         -177.737651
                       2     0          2.000      -0.324835           -8.839199

                       1     1          1.000      -0.112657           -3.065543


 Total Electron Density at R=0:                                        58.671969
 Re-scaling the density matrix to get the right number of electrons
                  # Electrons              Trace(P)               Scaling factor
                           10                10.000                        1.000


 SCF WAVEFUNCTION OPTIMIZATION

  Step     Update method      Time    Convergence         Total energy    Change
  ------------------------------------------------------------------------------

  HFX_MEM_INFO| Est. max. program size before HFX [MiB]:                    2124
  HFX_MEM_INFO| Number of cart. primitive ERI's calculated:            188947463
  HFX_MEM_INFO| Number of sph. ERI's calculated:                          230496
  HFX_MEM_INFO| Number of sph. ERI's stored in-core:                      230496
  HFX_MEM_INFO| Number of sph. ERI's stored on disk:                           0
  HFX_MEM_INFO| Number of sph. ERI's calculated on the fly:                    0
  HFX_MEM_INFO| Total memory consumption ERI's RAM [MiB]:                      2
  HFX_MEM_INFO| Whereof max-vals [MiB]:                                        1
  HFX_MEM_INFO| Total compression factor ERI's RAM:                         1.11
  HFX_MEM_INFO| Total memory consumption ERI's disk [MiB]:                     0
  HFX_MEM_INFO| Total compression factor ERI's disk:                        0.00
  HFX_MEM_INFO| Size of density/Fock matrix [MiB]:                             0
  HFX_MEM_INFO| Size of buffers [MiB]:                                         0
  HFX_MEM_INFO| Est. max. program size after HFX  [MiB]:                    2637

     1 NoMix/Diag. 0.10E+00    8.3     0.34372936       -49.3968786203 -4.94E+01
     2 Broy./Diag. 0.10E+00    4.7     0.03842343       -49.2120608640  1.85E-01
     3 Broy./Diag. 0.10E+00    4.9     0.00885436       -49.1549299297  5.71E-02
     4 Broy./Diag. 0.10E+00    4.8     0.02732041       -49.1349865185  1.99E-02
     5 Broy./Diag. 0.10E+00    4.8     0.00525238       -49.1938530511 -5.89E-02
     6 Broy./Diag. 0.10E+00    4.9     0.00522755       -49.2155790092 -2.17E-02
     7 Broy./Diag. 0.10E+00    5.0     0.00168823       -49.2353927736 -1.98E-02
     8 Broy./Diag. 0.10E+00    5.1     0.00049331       -49.2390729470 -3.68E-03
     9 Broy./Diag. 0.10E+00    5.2     0.00225097       -49.2361130035  2.96E-03
    10 Broy./Diag. 0.10E+00    5.3     0.00069733       -49.2334342439  2.68E-03
    11 Broy./Diag. 0.10E+00    5.2     0.00030603       -49.2294599952  3.97E-03
    12 Broy./Diag. 0.10E+00    5.4     0.00044377       -49.2292724962  1.87E-04
    13 Broy./Diag. 0.10E+00    5.3     0.00009028       -49.2299800588 -7.08E-04
    14 Broy./Diag. 0.10E+00    5.3     0.00053186       -49.2297858603  1.94E-04
    15 Broy./Diag. 0.10E+00    5.2     0.00021413       -49.2307860513 -1.00E-03
    16 Broy./Diag. 0.10E+00    5.3     0.00018310       -49.2313544029 -5.68E-04
    17 Broy./Diag. 0.10E+00    5.4     0.00009640       -49.2313049935  4.94E-05
    18 Broy./Diag. 0.10E+00    5.3     0.00002675       -49.2310770277  2.28E-04
    19 Broy./Diag. 0.10E+00    5.3     0.00007781       -49.2304137432  6.63E-04
    20 Broy./Diag. 0.10E+00    5.3     0.00003923       -49.2301958905  2.18E-04
    21 Broy./Diag. 0.10E+00    5.3     0.00001883       -49.2300259400  1.70E-04
    22 Broy./Diag. 0.10E+00    5.4     0.00008064       -49.2298866358  1.39E-04
    23 Broy./Diag. 0.10E+00    5.4     0.00003347       -49.2299112361 -2.46E-05
    24 Broy./Diag. 0.10E+00    5.3     0.00001692       -49.2299506381 -3.94E-05
    25 Broy./Diag. 0.10E+00    5.3     0.00007103       -49.2300696380 -1.19E-04
    26 Broy./Diag. 0.10E+00    5.3     0.00005638       -49.2301007321 -3.11E-05
    27 Broy./Diag. 0.10E+00    5.3     0.00004636       -49.2301111226 -1.04E-05
    28 Broy./Diag. 0.10E+00    5.3     0.00005202       -49.2301305129 -1.94E-05
    29 Broy./Diag. 0.10E+00    5.3     0.00004411       -49.2301491118 -1.86E-05
    30 Broy./Diag. 0.10E+00    5.3     0.00004199       -49.2301459709  3.14E-06
    31 Broy./Diag. 0.10E+00    5.3     0.00003539       -49.2301537747 -7.80E-06
    32 Broy./Diag. 0.10E+00    5.3     0.00003863       -49.2301600710 -6.30E-06
    33 Broy./Diag. 0.10E+00    5.3     0.00005870       -49.2301600686  2.36E-09
    34 Broy./Diag. 0.10E+00    5.4     0.00008966       -49.2301653696 -5.30E-06
    35 Broy./Diag. 0.10E+00    5.3     0.00013184       -49.2301454262  1.99E-05
    36 Broy./Diag. 0.10E+00    5.4     0.00019746       -49.2301444586  9.68E-07
    37 Broy./Diag. 0.10E+00    5.3     0.00028957       -49.2301379978  6.46E-06
    38 Broy./Diag. 0.10E+00    5.3     0.00043039       -49.2301110935  2.69E-05
    39 Broy./Diag. 0.10E+00    5.3     0.00063637       -49.2301219068 -1.08E-05
    40 Broy./Diag. 0.10E+00    5.3     0.00093914       -49.2301302479 -8.34E-06
    41 Broy./Diag. 0.10E+00    5.3     0.00138960       -49.2302006961 -7.04E-05
    42 Broy./Diag. 0.10E+00    5.3     0.00206050       -49.2302346092 -3.39E-05
    43 Broy./Diag. 0.10E+00    5.3     0.00308330       -49.2302965855 -6.20E-05
    44 Broy./Diag. 0.10E+00    5.3     0.00457781       -49.2302062315  9.04E-05
    45 Broy./Diag. 0.10E+00    5.3     0.00679762       -49.2301481860  5.80E-05
    46 Broy./Diag. 0.10E+00    5.4     0.01004133       -49.2301013567  4.68E-05
    47 Broy./Diag. 0.10E+00    5.4     0.01469944       -49.2300307418  7.06E-05
    48 Broy./Diag. 0.10E+00    5.3     0.02116494       -49.2299991063  3.16E-05
    49 Broy./Diag. 0.10E+00    5.3     0.02926018       -49.2299825285  1.66E-05
    50 Broy./Diag. 0.10E+00    5.3     0.03720141       -49.2300310650 -4.85E-05
    51 Broy./Diag. 0.10E+00    5.3     0.04032464       -49.2299328061  9.83E-05
    52 Broy./Diag. 0.10E+00    5.3     0.05670926       -49.2296418865  2.91E-04
    53 Broy./Diag. 0.10E+00    5.3     0.06705725       -49.2286625388  9.79E-04
    54 Broy./Diag. 0.10E+00    5.3     0.06383824       -49.2272057309  1.46E-03
    55 Broy./Diag. 0.10E+00    5.5     0.05108672       -49.2254713071  1.73E-03
    56 Broy./Diag. 0.10E+00    5.4     0.03615159       -49.2237086722  1.76E-03
    57 Broy./Diag. 0.10E+00    5.4     0.02770469       -49.2225618520  1.15E-03
    58 Broy./Diag. 0.10E+00    5.3     0.02409238       -49.2217699409  7.92E-04
    59 Broy./Diag. 0.10E+00    5.3     0.01968717       -49.2214589105  3.11E-04
    60 Broy./Diag. 0.10E+00    5.2     0.01575786       -49.2219464008 -4.87E-04
    61 Broy./Diag. 0.10E+00    5.2     0.01258122       -49.2244982535 -2.55E-03
    62 Broy./Diag. 0.10E+00    5.2     0.00957349       -49.2243688390  1.29E-04
    63 Broy./Diag. 0.10E+00    5.3     0.00754714       -49.2290667358 -4.70E-03
    64 Broy./Diag. 0.10E+00    5.2     0.00617565       -49.2246430380  4.42E-03
    65 Broy./Diag. 0.10E+00    5.2     0.00549505       -49.2306317884 -5.99E-03
    66 Broy./Diag. 0.10E+00    5.2     0.01052339       -49.2726533552 -4.20E-02
    67 Broy./Diag. 0.10E+00    5.3     0.01223593       -49.2530335222  1.96E-02
    68 Broy./Diag. 0.10E+00    5.3     0.02055427       -49.2740401618 -2.10E-02
    69 Broy./Diag. 0.10E+00    5.2     0.01420346       -49.2294602532  4.46E-02
    70 Broy./Diag. 0.10E+00    5.2     0.04540229       -49.1575232335  7.19E-02
    71 Broy./Diag. 0.10E+00    5.3     0.03906692       -49.1799079601 -2.24E-02
    72 Broy./Diag. 0.10E+00    5.3     0.02448423       -49.1936139771 -1.37E-02
    73 Broy./Diag. 0.10E+00    5.4     0.04570606       -49.1874381961  6.18E-03
    74 Broy./Diag. 0.10E+00    5.4     0.03209294       -49.1902143781 -2.78E-03
    75 Broy./Diag. 0.10E+00    5.4     0.04025425       -49.1835418208  6.67E-03
    76 Broy./Diag. 0.10E+00    5.4     0.04784818       -49.1750953803  8.45E-03
    77 Broy./Diag. 0.10E+00    5.4     0.04662634       -49.1698154630  5.28E-03
    78 Broy./Diag. 0.10E+00    5.3     0.04840428       -49.1709639406 -1.15E-03
    79 Broy./Diag. 0.10E+00    5.5     0.04925584       -49.1762495694 -5.29E-03
    80 Broy./Diag. 0.10E+00    5.4     0.04655908       -49.1768367871 -5.87E-04
    81 Broy./Diag. 0.10E+00    5.4     0.04460998       -49.1793968922 -2.56E-03
    82 Broy./Diag. 0.10E+00    5.2     0.03379734       -49.1833009773 -3.90E-03
    83 Broy./Diag. 0.10E+00    5.3     0.03041675       -49.1938909354 -1.06E-02
    84 Broy./Diag. 0.10E+00    5.3     0.02525076       -49.1913229089  2.57E-03
    85 Broy./Diag. 0.10E+00    5.3     0.03899628       -49.2016530657 -1.03E-02
    86 Broy./Diag. 0.10E+00    5.4     0.03120794       -49.2098095628 -8.16E-03
    87 Broy./Diag. 0.10E+00    5.3     0.03208064       -49.2203431058 -1.05E-02
    88 Broy./Diag. 0.10E+00    5.2     0.03422238       -49.2650192701 -4.47E-02
    89 Broy./Diag. 0.10E+00    5.3     0.05539724       -49.2383466363  2.67E-02
    90 Broy./Diag. 0.10E+00    5.2     0.08300935       -49.2232327674  1.51E-02
    91 Broy./Diag. 0.10E+00    5.3     0.05632215       -49.2047795313  1.85E-02
    92 Broy./Diag. 0.10E+00    5.3     0.05551205       -49.2326408093 -2.79E-02
    93 Broy./Diag. 0.10E+00    5.3     0.06805941       -49.2131073250  1.95E-02
    94 Broy./Diag. 0.10E+00    5.3     0.06451113       -49.1730155932  4.01E-02
    95 Broy./Diag. 0.10E+00    5.3     0.04457491       -49.1469501541  2.61E-02
    96 Broy./Diag. 0.10E+00    5.4     0.02266918       -49.1963943072 -4.94E-02
    97 Broy./Diag. 0.10E+00    5.4     0.03709525       -49.1760263258  2.04E-02
    98 Broy./Diag. 0.10E+00    5.6     0.03648762       -49.1658136403  1.02E-02
    99 Broy./Diag. 0.10E+00    5.4     0.03336643       -49.1774916451 -1.17E-02
   100 Broy./Diag. 0.10E+00    5.3     0.06145269       -49.2207284771 -4.32E-02
   101 Broy./Diag. 0.10E+00    5.3     0.02397946       -49.2424570625 -2.17E-02
   102 Broy./Diag. 0.10E+00    5.3     0.02323479       -49.3166206951 -7.42E-02
   103 Broy./Diag. 0.10E+00    5.3     0.00883482       -49.2128479404  1.04E-01
   104 Broy./Diag. 0.10E+00    5.3     0.05465004       -49.2774736426 -6.46E-02
   105 Broy./Diag. 0.10E+00    5.3     0.05872251       -49.3162926806 -3.88E-02
   106 Broy./Diag. 0.10E+00    5.3     0.03001598       -49.2867300077  2.96E-02
   107 Broy./Diag. 0.10E+00    5.3     0.03538071       -49.2812043145  5.53E-03
   108 Broy./Diag. 0.10E+00    5.3     0.02867504       -49.2586073932  2.26E-02
   109 Broy./Diag. 0.10E+00    5.3     0.02181539       -49.2518295046  6.78E-03
   110 Broy./Diag. 0.10E+00    5.3     0.02285426       -49.2448518063  6.98E-03
   111 Broy./Diag. 0.10E+00    5.2     0.02751071       -49.2378907286  6.96E-03
   112 Broy./Diag. 0.10E+00    5.3     0.03614886       -49.2296184647  8.27E-03
   113 Broy./Diag. 0.10E+00    5.3     0.04432645       -49.2256284698  3.99E-03
   114 Broy./Diag. 0.10E+00    5.3     0.05424273       -49.2237833908  1.85E-03
   115 Broy./Diag. 0.10E+00    5.3     0.05922925       -49.2190726487  4.71E-03
   116 Broy./Diag. 0.10E+00    5.3     0.05343891       -49.2100507952  9.02E-03
   117 Broy./Diag. 0.10E+00    5.3     0.04034904       -49.2098996429  1.51E-04
   118 Broy./Diag. 0.10E+00    5.3     0.04341843       -49.2051069049  4.79E-03
   119 Broy./Diag. 0.10E+00    5.3     0.03895047       -49.1995015729  5.61E-03
   120 Broy./Diag. 0.10E+00    5.3     0.03017945       -49.1929441831  6.56E-03
   121 Broy./Diag. 0.10E+00    5.3     0.02124605       -49.1748762495  1.81E-02
   122 Broy./Diag. 0.10E+00    5.2     0.03946773       -49.1581057701  1.68E-02
   123 Broy./Diag. 0.10E+00    5.2     0.04162077       -49.1624729751 -4.37E-03
   124 Broy./Diag. 0.10E+00    5.2     0.02539509       -49.1968982491 -3.44E-02
   125 Broy./Diag. 0.10E+00    5.2     0.03086686       -49.2061454443 -9.25E-03
   126 Broy./Diag. 0.10E+00    5.3     0.04560319       -49.2280687433 -2.19E-02
   127 Broy./Diag. 0.10E+00    5.2     0.03265472       -49.2340005550 -5.93E-03
   128 Broy./Diag. 0.10E+00    5.3     0.05060392       -49.2497550683 -1.58E-02
   129 Broy./Diag. 0.10E+00    5.3     0.05914158       -49.3442455391 -9.45E-02
   130 Broy./Diag. 0.10E+00    5.3     0.01878693       -49.2980478645  4.62E-02
   131 Broy./Diag. 0.10E+00    5.3     0.08852708       -49.2968723335  1.18E-03
   132 Broy./Diag. 0.10E+00    5.3     0.09483514       -49.3609835060 -6.41E-02
   133 Broy./Diag. 0.10E+00    5.3     0.05099709       -49.3646349909 -3.65E-03
   134 Broy./Diag. 0.10E+00    5.3     0.05002624       -49.3493699196  1.53E-02
   135 Broy./Diag. 0.10E+00    5.3     0.06858209       -49.3654323671 -1.61E-02
   136 Broy./Diag. 0.10E+00    5.4     0.05035486       -49.3492618641  1.62E-02
   137 Broy./Diag. 0.10E+00    5.4     0.03720045       -49.3370149182  1.22E-02
   138 Broy./Diag. 0.10E+00    5.3     0.02579981       -49.3264703889  1.05E-02
   139 Broy./Diag. 0.10E+00    5.3     0.02051456       -49.2917489330  3.47E-02
   140 Broy./Diag. 0.10E+00    5.3     0.01275615       -49.2829438205  8.81E-03
   141 Broy./Diag. 0.10E+00    5.3     0.00977342       -49.2403080610  4.26E-02
   142 Broy./Diag. 0.10E+00    5.2     0.00653224       -49.2104354549  2.99E-02
   143 Broy./Diag. 0.10E+00    5.3     0.01880256       -49.1922204080  1.82E-02
   144 Broy./Diag. 0.10E+00    5.2     0.06252863       -49.2068091770 -1.46E-02
   145 Broy./Diag. 0.10E+00    5.3     0.05990266       -49.2142583514 -7.45E-03
   146 Broy./Diag. 0.10E+00    5.2     0.04605654       -49.2133582418  9.00E-04
   147 Broy./Diag. 0.10E+00    5.3     0.04087758       -49.2122042208  1.15E-03
   148 Broy./Diag. 0.10E+00    5.2     0.03455536       -49.1989388541  1.33E-02
   149 Broy./Diag. 0.10E+00    5.4     0.03332900       -49.2110141452 -1.21E-02
   150 Broy./Diag. 0.10E+00    5.3     0.02921878       -49.1964895736  1.45E-02
   151 Broy./Diag. 0.10E+00    5.3     0.03656329       -49.1853260109  1.12E-02
   152 Broy./Diag. 0.10E+00    5.3     0.04707293       -49.1790579523  6.27E-03
   153 Broy./Diag. 0.10E+00    5.4     0.04970830       -49.1919817061 -1.29E-02
   154 Broy./Diag. 0.10E+00    5.3     0.04869009       -49.2087331871 -1.68E-02
   155 Broy./Diag. 0.10E+00    5.3     0.05617454       -49.1983109354  1.04E-02
   156 Broy./Diag. 0.10E+00    5.3     0.03935910       -49.1894445692  8.87E-03
   157 Broy./Diag. 0.10E+00    5.2     0.03774344       -49.1812843341  8.16E-03
   158 Broy./Diag. 0.10E+00    5.3     0.01432517       -49.2107819155 -2.95E-02
   159 Broy./Diag. 0.10E+00    5.3     0.06242720       -49.2147114074 -3.93E-03
   160 Broy./Diag. 0.10E+00    5.3     0.04898790       -49.2745795916 -5.99E-02
   161 Broy./Diag. 0.10E+00    5.3     0.04928496       -49.2703800458  4.20E-03
   162 Broy./Diag. 0.10E+00    5.3     0.03539286       -49.2447628759  2.56E-02
   163 Broy./Diag. 0.10E+00    5.3     0.06194702       -49.3011049024 -5.63E-02
   164 Broy./Diag. 0.10E+00    5.3     0.05642069       -49.3478027136 -4.67E-02
   165 Broy./Diag. 0.10E+00    5.3     0.05131741       -49.3144290277  3.34E-02
   166 Broy./Diag. 0.10E+00    5.3     0.06630036       -49.3292158963 -1.48E-02
   167 Broy./Diag. 0.10E+00    5.3     0.04157291       -49.3218037513  7.41E-03
   168 Broy./Diag. 0.10E+00    5.3     0.02976648       -49.3227618969 -9.58E-04
   169 Broy./Diag. 0.10E+00    5.3     0.04120707       -49.2925316009  3.02E-02
   170 Broy./Diag. 0.10E+00    5.4     0.03875443       -49.2545380357  3.80E-02
   171 Broy./Diag. 0.10E+00    5.3     0.02737374       -49.2520980212  2.44E-03
   172 Broy./Diag. 0.10E+00    5.3     0.02741906       -49.2558158806 -3.72E-03
   173 Broy./Diag. 0.10E+00    5.3     0.01669668       -49.2321298644  2.37E-02
   174 Broy./Diag. 0.10E+00    5.3     0.01656179       -49.2439978046 -1.19E-02
   175 Broy./Diag. 0.10E+00    5.2     0.01578588       -49.2410849942  2.91E-03
   176 Broy./Diag. 0.10E+00    5.3     0.05748495       -49.2760830543 -3.50E-02
   177 Broy./Diag. 0.10E+00    5.3     0.08949745       -49.3913122606 -1.15E-01
   178 Broy./Diag. 0.10E+00    5.4     0.05520718       -49.4574819805 -6.62E-02
   179 Broy./Diag. 0.10E+00    5.3     0.02640751       -49.4194034310  3.81E-02
   180 Broy./Diag. 0.10E+00    5.2     0.02915540       -49.3882072632  3.12E-02
   181 Broy./Diag. 0.10E+00    5.3     0.03678586       -49.3760682214  1.21E-02
   182 Broy./Diag. 0.10E+00    5.3     0.01480252       -49.3476026548  2.85E-02
   183 Broy./Diag. 0.10E+00    5.3     0.00652318       -49.3273470044  2.03E-02
   184 Broy./Diag. 0.10E+00    5.3     0.01454743       -49.3112882590  1.61E-02
   185 Broy./Diag. 0.10E+00    5.3     0.03314117       -49.2822985081  2.90E-02
   186 Broy./Diag. 0.10E+00    5.3     0.02089577       -49.2679809863  1.43E-02
   187 Broy./Diag. 0.10E+00    5.3     0.02627361       -49.2635614462  4.42E-03
   188 Broy./Diag. 0.10E+00    5.3     0.02483865       -49.2529778522  1.06E-02
   189 Broy./Diag. 0.10E+00    5.3     0.03001953       -49.2438684422  9.11E-03
   190 Broy./Diag. 0.10E+00    5.2     0.03154043       -49.2374042342  6.46E-03
   191 Broy./Diag. 0.10E+00    5.2     0.03240104       -49.2355133453  1.89E-03
   192 Broy./Diag. 0.10E+00    5.2     0.03560776       -49.2328504764  2.66E-03
   193 Broy./Diag. 0.10E+00    5.3     0.04515449       -49.2219276990  1.09E-02
   194 Broy./Diag. 0.10E+00    5.3     0.05385383       -49.2181381800  3.79E-03
   195 Broy./Diag. 0.10E+00    5.2     0.05153926       -49.2364299877 -1.83E-02
   196 Broy./Diag. 0.10E+00    5.2     0.04600981       -49.2523001554 -1.59E-02
   197 Broy./Diag. 0.10E+00    5.2     0.03737494       -49.2452076316  7.09E-03
   198 Broy./Diag. 0.10E+00    5.2     0.03931276       -49.2363586261  8.85E-03
   199 Broy./Diag. 0.10E+00    5.3     0.03220408       -49.2295310781  6.83E-03
   200 Broy./Diag. 0.10E+00    5.3     0.02178367       -49.2271718205  2.36E-03
   201 Broy./Diag. 0.10E+00    5.4     0.01485081       -49.2185780478  8.59E-03
   202 Broy./Diag. 0.10E+00    5.4     0.01765004       -49.2714564155 -5.29E-02
   203 Broy./Diag. 0.10E+00    5.5     0.06648372       -49.2383547418  3.31E-02
   204 Broy./Diag. 0.10E+00    5.4     0.06240814       -49.2772751864 -3.89E-02
   205 Broy./Diag. 0.10E+00    5.3     0.06111508       -49.2960379160 -1.88E-02
   206 Broy./Diag. 0.10E+00    5.3     0.06378300       -49.3129506258 -1.69E-02
   207 Broy./Diag. 0.10E+00    5.3     0.04924648       -49.2955645528  1.74E-02
   208 Broy./Diag. 0.10E+00    5.3     0.07297524       -49.2379012017  5.77E-02
   209 Broy./Diag. 0.10E+00    5.4     0.06663564       -49.2363285178  1.57E-03
   210 Broy./Diag. 0.10E+00    5.3     0.05409995       -49.2736405779 -3.73E-02
   211 Broy./Diag. 0.10E+00    5.3     0.05179676       -49.2715874548  2.05E-03
   212 Broy./Diag. 0.10E+00    5.3     0.06170757       -49.2669471445  4.64E-03
   213 Broy./Diag. 0.10E+00    5.3     0.06517460       -49.2585817563  8.37E-03
   214 Broy./Diag. 0.10E+00    5.3     0.06870920       -49.2504672832  8.11E-03
   215 Broy./Diag. 0.10E+00    5.3     0.07314135       -49.2390378943  1.14E-02
   216 Broy./Diag. 0.10E+00    5.4     0.05656251       -49.2261980358  1.28E-02
   217 Broy./Diag. 0.10E+00    5.3     0.04470822       -49.2271729085 -9.75E-04
   218 Broy./Diag. 0.10E+00    5.3     0.03582833       -49.2312352729 -4.06E-03
   219 Broy./Diag. 0.10E+00    5.3     0.02609174       -49.2297852313  1.45E-03
   220 Broy./Diag. 0.10E+00    5.3     0.01327337       -49.2177909324  1.20E-02
   221 Broy./Diag. 0.10E+00    5.3     0.03220980       -49.2068934169  1.09E-02
   222 Broy./Diag. 0.10E+00    5.3     0.02663643       -49.2389468245 -3.21E-02
   223 Broy./Diag. 0.10E+00    5.3     0.04584284       -49.2601628598 -2.12E-02
   224 Broy./Diag. 0.10E+00    5.3     0.02063872       -49.3154808559 -5.53E-02
   225 Broy./Diag. 0.10E+00    5.3     0.04343485       -49.3487163555 -3.32E-02
   226 Broy./Diag. 0.10E+00    5.4     0.05694749       -49.3400398596  8.68E-03
   227 Broy./Diag. 0.10E+00    5.2     0.06641335       -49.3343945884  5.65E-03
   228 Broy./Diag. 0.10E+00    5.3     0.04799315       -49.2978957896  3.65E-02
   229 Broy./Diag. 0.10E+00    5.3     0.03356030       -49.2774986928  2.04E-02
   230 Broy./Diag. 0.10E+00    5.3     0.03771612       -49.2676026376  9.90E-03
   231 Broy./Diag. 0.10E+00    5.3     0.04960495       -49.2888268387 -2.12E-02
   232 Broy./Diag. 0.10E+00    5.3     0.06216554       -49.3129479876 -2.41E-02
   233 Broy./Diag. 0.10E+00    5.3     0.02868332       -49.2973016616  1.56E-02
   234 Broy./Diag. 0.10E+00    5.3     0.02389382       -49.2812615900  1.60E-02
   235 Broy./Diag. 0.10E+00    5.3     0.01020256       -49.2688376074  1.24E-02
   236 Broy./Diag. 0.10E+00    5.3     0.00898506       -49.2642990446  4.54E-03
   237 Broy./Diag. 0.10E+00    5.3     0.02365178       -49.2580712412  6.23E-03
   238 Broy./Diag. 0.10E+00    5.3     0.02633004       -49.2587835558 -7.12E-04
   239 Broy./Diag. 0.10E+00    5.3     0.03746294       -49.2611361418 -2.35E-03
   240 Broy./Diag. 0.10E+00    5.4     0.04912609       -49.2618885731 -7.52E-04
   241 Broy./Diag. 0.10E+00    5.3     0.07082337       -49.2687920072 -6.90E-03
   242 Broy./Diag. 0.10E+00    5.3     0.06847538       -49.2679179640  8.74E-04
   243 Broy./Diag. 0.10E+00    5.3     0.05796151       -49.2654998904  2.42E-03
   244 Broy./Diag. 0.10E+00    5.3     0.04160551       -49.2672880590 -1.79E-03
   245 Broy./Diag. 0.10E+00    5.3     0.04196528       -49.2649189835  2.37E-03
   246 Broy./Diag. 0.10E+00    5.3     0.03839341       -49.2561283182  8.79E-03
   247 Broy./Diag. 0.10E+00    5.3     0.03392044       -49.2504439720  5.68E-03
   248 Broy./Diag. 0.10E+00    5.3     0.03151416       -49.2495585206  8.85E-04
   249 Broy./Diag. 0.10E+00    5.3     0.03829011       -49.2455895970  3.97E-03
   250 Broy./Diag. 0.10E+00    5.3     0.04493568       -49.2501662952 -4.58E-03
   251 Broy./Diag. 0.10E+00    5.3     0.04028602       -49.2525759853 -2.41E-03
   252 Broy./Diag. 0.10E+00    5.4     0.03690530       -49.2554521701 -2.88E-03
   253 Broy./Diag. 0.10E+00    5.3     0.04546214       -49.2932780779 -3.78E-02
   254 Broy./Diag. 0.10E+00    5.3     0.04355295       -49.2871738440  6.10E-03
   255 Broy./Diag. 0.10E+00    5.3     0.05219870       -49.2685321357  1.86E-02
   256 Broy./Diag. 0.10E+00    5.3     0.03537712       -49.2791687084 -1.06E-02
   257 Broy./Diag. 0.10E+00    5.3     0.05409949       -49.2897104572 -1.05E-02
   258 Broy./Diag. 0.10E+00    5.3     0.04340305       -49.2769708057  1.27E-02
   259 Broy./Diag. 0.10E+00    5.3     0.05192124       -49.2726969360  4.27E-03
   260 Broy./Diag. 0.10E+00    5.3     0.04323495       -49.2664243958  6.27E-03
   261 Broy./Diag. 0.10E+00    5.3     0.04941361       -49.2512715804  1.52E-02
   262 Broy./Diag. 0.10E+00    5.3     0.03622904       -49.2326492438  1.86E-02
   263 Broy./Diag. 0.10E+00    5.3     0.04663984       -49.2140512780  1.86E-02
   264 Broy./Diag. 0.10E+00    5.3     0.04711887       -49.1983426565  1.57E-02
   265 Broy./Diag. 0.10E+00    5.3     0.05434307       -49.1927525556  5.59E-03
   266 Broy./Diag. 0.10E+00    5.3     0.06506011       -49.1904662116  2.29E-03
   267 Broy./Diag. 0.10E+00    5.3     0.05891888       -49.1910246943 -5.58E-04
   268 Broy./Diag. 0.10E+00    5.3     0.04810123       -49.1971914792 -6.17E-03
   269 Broy./Diag. 0.10E+00    5.3     0.03814939       -49.2080183971 -1.08E-02
   270 Broy./Diag. 0.10E+00    5.3     0.02564560       -49.2142536920 -6.24E-03
   271 Broy./Diag. 0.10E+00    5.3     0.07538786       -49.2201164880 -5.86E-03
   272 Broy./Diag. 0.10E+00    5.3     0.07608401       -49.2625502921 -4.24E-02
   273 Broy./Diag. 0.10E+00    5.3     0.06712402       -49.2945490566 -3.20E-02
   274 Broy./Diag. 0.10E+00    5.3     0.04693086       -49.2990398565 -4.49E-03
   275 Broy./Diag. 0.10E+00    5.3     0.11870674       -49.2752514481  2.38E-02
   276 Broy./Diag. 0.10E+00    5.3     0.14155651       -49.2729318363  2.32E-03
   277 Broy./Diag. 0.10E+00    5.3     0.10370809       -49.2597649334  1.32E-02
   278 Broy./Diag. 0.10E+00    5.4     0.03979362       -49.2984798177 -3.87E-02
   279 Broy./Diag. 0.10E+00    5.4     0.02511866       -49.2999702684 -1.49E-03
   280 Broy./Diag. 0.10E+00    5.3     0.01240749       -49.2976777994  2.29E-03
   281 Broy./Diag. 0.10E+00    5.3     0.01445414       -49.2982256452 -5.48E-04
   282 Broy./Diag. 0.10E+00    5.3     0.05604090       -49.2844969382  1.37E-02
   283 Broy./Diag. 0.10E+00    5.3     0.04469520       -49.2917972206 -7.30E-03
   284 Broy./Diag. 0.10E+00    5.4     0.05362603       -49.2843660299  7.43E-03
   285 Broy./Diag. 0.10E+00    5.3     0.05633996       -49.2747829046  9.58E-03
   286 Broy./Diag. 0.10E+00    5.3     0.05331161       -49.2681884817  6.59E-03
   287 Broy./Diag. 0.10E+00    5.3     0.04913971       -49.2599326493  8.26E-03
   288 Broy./Diag. 0.10E+00    5.3     0.05522074       -49.2478928526  1.20E-02
   289 Broy./Diag. 0.10E+00    5.4     0.05378721       -49.2357307368  1.22E-02
   290 Broy./Diag. 0.10E+00    5.3     0.04517945       -49.2301712732  5.56E-03
   291 Broy./Diag. 0.10E+00    5.3     0.03950855       -49.2601621375 -3.00E-02
   292 Broy./Diag. 0.10E+00    5.3     0.02667074       -49.2806211993 -2.05E-02
   293 Broy./Diag. 0.10E+00    5.3     0.03058409       -49.2890173673 -8.40E-03
   294 Broy./Diag. 0.10E+00    5.3     0.03145457       -49.2928283846 -3.81E-03
   295 Broy./Diag. 0.10E+00    5.3     0.03660653       -49.2908667711  1.96E-03
   296 Broy./Diag. 0.10E+00    5.3     0.03487565       -49.2851149441  5.75E-03
   297 Broy./Diag. 0.10E+00    5.3     0.02643737       -49.2804229456  4.69E-03
   298 Broy./Diag. 0.10E+00    5.3     0.03400464       -49.2755450221  4.88E-03
   299 Broy./Diag. 0.10E+00    5.3     0.02654756       -49.2778053824 -2.26E-03
   300 Broy./Diag. 0.10E+00    5.3     0.04043012       -49.2752860169  2.52E-03
   301 Broy./Diag. 0.10E+00    5.4     0.03534668       -49.2743718575  9.14E-04
   302 Broy./Diag. 0.10E+00    5.3     0.06206604       -49.2654085849  8.96E-03
   303 Broy./Diag. 0.10E+00    5.5     0.07170454       -49.2579463783  7.46E-03
   304 Broy./Diag. 0.10E+00    5.3     0.05700620       -49.2518186046  6.13E-03
   305 Broy./Diag. 0.10E+00    5.3     0.04369412       -49.2411391017  1.07E-02
   306 Broy./Diag. 0.10E+00    5.3     0.04099941       -49.2538470948 -1.27E-02
   307 Broy./Diag. 0.10E+00    5.3     0.03470710       -49.2693197218 -1.55E-02
   308 Broy./Diag. 0.10E+00    5.3     0.03977995       -49.2811678974 -1.18E-02
   309 Broy./Diag. 0.10E+00    5.2     0.03599611       -49.2934097407 -1.22E-02
   310 Broy./Diag. 0.10E+00    5.3     0.02713105       -49.3016846181 -8.27E-03
   311 Broy./Diag. 0.10E+00    5.3     0.02871866       -49.3014778070  2.07E-04
   312 Broy./Diag. 0.10E+00    5.3     0.01773732       -49.3027758734 -1.30E-03
   313 Broy./Diag. 0.10E+00    5.3     0.01936961       -49.3009469628  1.83E-03
   314 Broy./Diag. 0.10E+00    5.3     0.01947029       -49.3015473652 -6.00E-04
   315 Broy./Diag. 0.10E+00    5.3     0.01065283       -49.2967384493  4.81E-03
   316 Broy./Diag. 0.10E+00    5.3     0.01369095       -49.2850547528  1.17E-02
   317 Broy./Diag. 0.10E+00    5.3     0.00672063       -49.2720574811  1.30E-02
   318 Broy./Diag. 0.10E+00    5.3     0.00831328       -49.2669582514  5.10E-03
   319 Broy./Diag. 0.10E+00    5.3     0.00502329       -49.2649909140  1.97E-03
   320 Broy./Diag. 0.10E+00    5.3     0.00259989       -49.2626848001  2.31E-03
   321 Broy./Diag. 0.10E+00    5.3     0.00284974       -49.2605706992  2.11E-03
   322 Broy./Diag. 0.10E+00    5.3     0.00395074       -49.2596208363  9.50E-04
   323 Broy./Diag. 0.10E+00    5.3     0.00701668       -49.2485812957  1.10E-02
   324 Broy./Diag. 0.10E+00    5.3     0.00479972       -49.2434909738  5.09E-03
   325 Broy./Diag. 0.10E+00    5.3     0.00488766       -49.2414500057  2.04E-03
   326 Broy./Diag. 0.10E+00    5.3     0.00450464       -49.2404939596  9.56E-04
   327 Broy./Diag. 0.10E+00    5.3     0.00468028       -49.2398707032  6.23E-04
   328 Broy./Diag. 0.10E+00    5.4     0.00472059       -49.2392284842  6.42E-04
   329 Broy./Diag. 0.10E+00    5.4     0.00589379       -49.2385568756  6.72E-04
   330 Broy./Diag. 0.10E+00    5.3     0.00721550       -49.2372101330  1.35E-03
   331 Broy./Diag. 0.10E+00    5.3     0.00884813       -49.2361390638  1.07E-03
   332 Broy./Diag. 0.10E+00    5.3     0.01159641       -49.2343141539  1.82E-03
   333 Broy./Diag. 0.10E+00    5.3     0.01606394       -49.2311704001  3.14E-03
   334 Broy./Diag. 0.10E+00    5.3     0.02260295       -49.2262920548  4.88E-03
   335 Broy./Diag. 0.10E+00    5.4     0.02943696       -49.2204974607  5.79E-03
   336 Broy./Diag. 0.10E+00    5.3     0.03761420       -49.2094707962  1.10E-02
   337 Broy./Diag. 0.10E+00    5.3     0.04374006       -49.1973112651  1.22E-02
   338 Broy./Diag. 0.10E+00    5.3     0.04124862       -49.1888867694  8.42E-03
   339 Broy./Diag. 0.10E+00    5.3     0.04680242       -49.1620742548  2.68E-02
   340 Broy./Diag. 0.10E+00    5.3     0.04689364       -49.1467496131  1.53E-02
   341 Broy./Diag. 0.10E+00    5.3     0.04156448       -49.1454332106  1.32E-03
   342 Broy./Diag. 0.10E+00    5.3     0.03922924       -49.1413324486  4.10E-03
   343 Broy./Diag. 0.10E+00    5.3     0.03332557       -49.1375033874  3.83E-03
   344 Broy./Diag. 0.10E+00    5.3     0.02710233       -49.1387377238 -1.23E-03
   345 Broy./Diag. 0.10E+00    5.3     0.01978788       -49.1420714778 -3.33E-03
   346 Broy./Diag. 0.10E+00    5.3     0.02230811       -49.1476070781 -5.54E-03
   347 Broy./Diag. 0.10E+00    5.3     0.04250212       -49.1667152253 -1.91E-02
   348 Broy./Diag. 0.10E+00    5.3     0.03508520       -49.1407805287  2.59E-02
   349 Broy./Diag. 0.10E+00    5.3     0.04474616       -49.1203001533  2.05E-02
   350 Broy./Diag. 0.10E+00    5.3     0.09756094       -49.1594185158 -3.91E-02
   351 Broy./Diag. 0.10E+00    5.3     0.05212620       -49.2436868366 -8.43E-02
   352 Broy./Diag. 0.10E+00    5.3     0.06169579       -49.2956752218 -5.20E-02
   353 Broy./Diag. 0.10E+00    5.4     0.07998472       -49.2364610265  5.92E-02
[...]
   418 Broy./Diag. 0.10E+00    5.3     0.04510224       -49.2085328513  9.50E-03
   419 Broy./Diag. 0.10E+00    5.3     0.04197774       -49.2034253183  5.11E-03
   420 Broy./Diag. 0.10E+00    5.3     0.04435392       -49.1937837597  9.64E-03
   421 Broy./Diag. 0.10E+00    5.3     0.04197819       -49.1829175734  1.09E-02
   422 Broy./Diag. 0.10E+00    5.3     0.03689453       -49.1746971809  8.22E-03
   423 Broy./Diag. 0.10E+00    5.3     0.03160160       -49.1731422233  1.55E-03
   424 Broy./Diag. 0.10E+00    5.3     0.02585871       -49.1882536756 -1.51E-02
   425 Broy./Diag. 0.10E+00    5.4     0.03441910       -49.1996725592 -1.14E-02
   426 Broy./Diag. 0.10E+00    5.3     0.02624263       -49.2063935121 -6.72E-03
   427 Broy./Diag. 0.10E+00    5.5     0.03638508       -49.2241900014 -1.78E-02
   428 Broy./Diag. 0.10E+00    5.3     0.05357708       -49.2595774496 -3.54E-02
   429 Broy./Diag. 0.10E+00    5.3     0.03205769       -49.3326086756 -7.30E-02
   430 Broy./Diag. 0.10E+00    5.3     0.05942112       -49.3781810202 -4.56E-02
   431 Broy./Diag. 0.10E+00    5.3     0.12588235       -49.3995876918 -2.14E-02
   432 Broy./Diag. 0.10E+00    5.4     0.13512538       -49.3165096498  8.31E-02
   433 Broy./Diag. 0.10E+00    5.3     0.04208177       -49.2795737830  3.69E-02
   434 Broy./Diag. 0.10E+00    5.3     0.31111763       -49.3206180069 -4.10E-02
   435 Broy./Diag. 0.10E+00    5.3     0.08697991       -49.4565706477 -1.36E-01
   436 Broy./Diag. 0.10E+00    5.3     0.02993308       -49.4552677331  1.30E-03
   437 Broy./Diag. 0.10E+00    5.3     0.02855758       -49.4401252992  1.51E-02
   438 Broy./Diag. 0.10E+00    5.3     0.12121439       -49.3784900471  6.16E-02
   439 Broy./Diag. 0.10E+00    5.3     0.04452015       -49.3252487125  5.32E-02
   440 Broy./Diag. 0.10E+00    5.3     0.06844417       -49.3158351494  9.41E-03
   441 Broy./Diag. 0.10E+00    5.3     0.06493971       -49.3303290612 -1.45E-02
   442 Broy./Diag. 0.10E+00    5.3     0.05111344       -49.3382202497 -7.89E-03
   443 Broy./Diag. 0.10E+00    5.3     0.04016139       -49.3370775277  1.14E-03
   444 Broy./Diag. 0.10E+00    5.2     0.05516778       -49.3357886725  1.29E-03
   445 Broy./Diag. 0.10E+00    5.2     0.05018732       -49.3247751456  1.10E-02
   446 Broy./Diag. 0.10E+00    5.3     0.02938598       -49.2992605363  2.55E-02
   447 Broy./Diag. 0.10E+00    5.3     0.03599892       -49.2827657542  1.65E-02
   448 Broy./Diag. 0.10E+00    5.3     0.04325300       -49.2727247244  1.00E-02
   449 Broy./Diag. 0.10E+00    5.3     0.05140581       -49.2700720439  2.65E-03
   450 Broy./Diag. 0.10E+00    5.3     0.06023830       -49.2554141047  1.47E-02
   451 Broy./Diag. 0.10E+00    5.3     0.06797251       -49.2317353060  2.37E-02
   452 Broy./Diag. 0.10E+00    5.4     0.10846490       -49.2362699762 -4.53E-03
   453 Broy./Diag. 0.10E+00    5.3     0.06695649       -49.2571101168 -2.08E-02
   454 Broy./Diag. 0.10E+00    5.3     0.04158900       -49.2638078478 -6.70E-03
   455 Broy./Diag. 0.10E+00    5.3     0.04157092       -49.2806306698 -1.68E-02
   456 Broy./Diag. 0.10E+00    5.3     0.06008995       -49.2900670622 -9.44E-03
   457 Broy./Diag. 0.10E+00    5.3     0.08980628       -49.2924657713 -2.40E-03
   458 Broy./Diag. 0.10E+00    5.4     0.13603798       -49.2876887703  4.78E-03
   459 Broy./Diag. 0.10E+00    5.3     0.05506163       -49.2137328035  7.40E-02
   460 Broy./Diag. 0.10E+00    5.3     0.03784253       -49.1617622660  5.20E-02
   461 Broy./Diag. 0.10E+00    5.3     0.02622779       -49.1778889279 -1.61E-02
   462 Broy./Diag. 0.10E+00    5.3     0.05765774       -49.2047681718 -2.69E-02
   463 Broy./Diag. 0.10E+00    5.3     0.09595293       -49.2309695633 -2.62E-02
   464 Broy./Diag. 0.10E+00    5.3     0.08983601       -49.2523167050 -2.13E-02
   465 Broy./Diag. 0.10E+00    5.4     0.02525345       -49.2679442214 -1.56E-02
   466 Broy./Diag. 0.10E+00    5.3     0.02240528       -49.2771275800 -9.18E-03
   467 Broy./Diag. 0.10E+00    5.3     0.02668633       -49.2811943558 -4.07E-03
   468 Broy./Diag. 0.10E+00    5.3     0.00735730       -49.3042549910 -2.31E-02
   469 Broy./Diag. 0.10E+00    5.3     0.03788916       -49.3180784334 -1.38E-02
   470 Broy./Diag. 0.10E+00    5.3     0.02857197       -49.3074291946  1.06E-02
   471 Broy./Diag. 0.10E+00    5.3     0.04867233       -49.2866319431  2.08E-02
   472 Broy./Diag. 0.10E+00    5.3     0.05758802       -49.2882830263 -1.65E-03
   473 Broy./Diag. 0.10E+00    5.3     0.02926517       -49.2874248188  8.58E-04
   474 Broy./Diag. 0.10E+00    5.3     0.02550747       -49.2883057068 -8.81E-04
   475 Broy./Diag. 0.10E+00    5.3     0.05262510       -49.2829262721  5.38E-03
   476 Broy./Diag. 0.10E+00    5.3     0.04147988       -49.2691319855  1.38E-02
   477 Broy./Diag. 0.10E+00    5.3     0.04247238       -49.2693472757 -2.15E-04
   478 Broy./Diag. 0.10E+00    5.3     0.07000826       -49.2625050330  6.84E-03
   479 Broy./Diag. 0.10E+00    5.3     0.06855786       -49.2484826315  1.40E-02
   480 Broy./Diag. 0.10E+00    5.3     0.05738996       -49.2394653950  9.02E-03
   481 Broy./Diag. 0.10E+00    5.3     0.05219304       -49.2349579883  4.51E-03
   482 Broy./Diag. 0.10E+00    5.3     0.04423132       -49.2393625962 -4.40E-03
   483 Broy./Diag. 0.10E+00    5.3     0.02422191       -49.2546786939 -1.53E-02
   484 Broy./Diag. 0.10E+00    5.3     0.02562764       -49.2529691986  1.71E-03
   485 Broy./Diag. 0.10E+00    5.2     0.02535297       -49.2500728964  2.90E-03
   486 Broy./Diag. 0.10E+00    5.3     0.01504706       -49.2837688602 -3.37E-02
   487 Broy./Diag. 0.10E+00    5.3     0.03503702       -49.2786080961  5.16E-03
   488 Broy./Diag. 0.10E+00    5.3     0.07492875       -49.2713618239  7.25E-03
   489 Broy./Diag. 0.10E+00    5.3     0.04089204       -49.3242822918 -5.29E-02
   490 Broy./Diag. 0.10E+00    5.3     0.06092827       -49.3407439185 -1.65E-02
   491 Broy./Diag. 0.10E+00    5.2     0.08695909       -49.3110861460  2.97E-02
   492 Broy./Diag. 0.10E+00    5.3     0.02679581       -49.3094066921  1.68E-03
   493 Broy./Diag. 0.10E+00    5.3     0.08190274       -49.3050646757  4.34E-03
   494 Broy./Diag. 0.10E+00    5.3     0.08597233       -49.2875853861  1.75E-02
   495 Broy./Diag. 0.10E+00    5.3     0.02051289       -49.2658481548  2.17E-02
   496 Broy./Diag. 0.10E+00    5.3     0.06158906       -49.2662550588 -4.07E-04
   497 Broy./Diag. 0.10E+00    5.3     0.06629073       -49.2810731535 -1.48E-02
   498 Broy./Diag. 0.10E+00    5.3     0.03608019       -49.2702615677  1.08E-02
   499 Broy./Diag. 0.10E+00    5.3     0.03566958       -49.2414551778  2.88E-02
   500 Broy./Diag. 0.10E+00    5.3     0.02306598       -49.2293852695  1.21E-02

  Leaving inner SCF loop after reaching   500 steps.


  Electronic density on regular grids:         -7.1415384361        2.8584615639
  Core density on regular grids:               10.0000000000        0.0000000000
  Hard and soft densities (Lebedev):          -13.5661961758      -10.6939636126
  Total Rho_soft + Rho1_hard - Rho1_soft      -10.0137709992
  Total charge density (r-space):              -0.0137709992
  Total Rho_soft + Rho0_soft (g-space):        -0.0137710599

  Overlap energy of the core charge distribution:               0.00000845868521
  Self energy of the core charge distribution:                -32.50467561761386
  Core Hamiltonian energy:                                    -13.38748023728905
  Hartree energy:                                              11.40541116324072
  Exchange-correlation energy:                                 -2.02760608680852
  Hartree-Fock Exchange energy:                                -1.87971081305665

  GAPW| Exc from hard and soft atomic rho1:                    -3.87475264335697
  GAPW| local Eh = 1 center integrals:                         -6.96057949331316

  Total energy:                                               -49.22938526951226

 *******************************************************************************
 *   ___                                                                       *
 *  /   \                                                                      *
 * [ABORT]                                                                     *
 *  \___/     SCF run NOT converged. To continue the calculation regardless,   *
 *    |             please set the keyword IGNORE_CONVERGENCE_FAILURE.         *
 *  O/|                                                                        *
 * /| |                                                                        *
 * / \                                                            qs_scf.F:611 *
 *******************************************************************************


 ===== Routine Calling Stack ===== 

            3 scf_env_do_scf
            2 qs_energies
            1 CP2K

 *******************************************************************************
 *   ___                                                                       *
 *  /   \                                                                      *
 * [ABORT]                                                                     *
 *  \___/     SCF run NOT converged. To continue the calculation regardless,   *
 *    |             please set the keyword IGNORE_CONVERGENCE_FAILURE.         *
 *  O/|                                                                        *
 * /| |                                                                        *
 * / \                                                            qs_scf.F:611 *
 *******************************************************************************


 ===== Routine Calling Stack ===== 

            3 scf_env_do_scf
            2 qs_energies
            1 CP2K

 *******************************************************************************
 *   ___                                                                       *
 *  /   \                                                                      *
 * [ABORT]                                                                     *
 *  \___/     SCF run NOT converged. To continue the calculation regardless,   *
 *    |             please set the keyword IGNORE_CONVERGENCE_FAILURE.         *
 *  O/|                                                                        *
 * /| |                                                                        *
 * / \                                                            qs_scf.F:611 *
 *******************************************************************************


 ===== Routine Calling Stack ===== 

            3 scf_env_do_scf
            2 qs_energies
            1 CP2K

 *******************************************************************************
 *   ___                                                                       *
 *  /   \                                                                      *
 * [ABORT]                                                                     *
 *  \___/     SCF run NOT converged. To continue the calculation regardless,   *
 *    |             please set the keyword IGNORE_CONVERGENCE_FAILURE.         *
 *  O/|                                                                        *
 * /| |                                                                        *
 * / \                                                            qs_scf.F:611 *
 *******************************************************************************


 ===== Routine Calling Stack ===== 

            3 scf_env_do_scf
            2 qs_energies
            1 CP2K

 *******************************************************************************
 *   ___                                                                       *
 *  /   \                                                                      *
 * [ABORT]                                                                     *
 *  \___/     SCF run NOT converged. To continue the calculation regardless,   *
 *    |             please set the keyword IGNORE_CONVERGENCE_FAILURE.         *
 *  O/|                                                                        *
 * /| |                                                                        *
 * / \                                                            qs_scf.F:611 *
 *******************************************************************************


 ===== Routine Calling Stack ===== 

            3 scf_env_do_scf
            2 qs_energies
            1 CP2K

 *******************************************************************************
 *   ___                                                                       *
 *  /   \                                                                      *
 * [ABORT]                                                                     *
 *  \___/     SCF run NOT converged. To continue the calculation regardless,   *
 *    |             please set the keyword IGNORE_CONVERGENCE_FAILURE.         *
 *  O/|                                                                        *
 * /| |                                                                        *
 * / \                                                            qs_scf.F:611 *
 *******************************************************************************


 ===== Routine Calling Stack ===== 

            3 scf_env_do_scf
            2 qs_energies
            1 CP2K

 *******************************************************************************
 *   ___                                                                       *
 *  /   \                                                                      *
 * [ABORT]                                                                     *
 *  \___/     SCF run NOT converged. To continue the calculation regardless,   *
 *    |             please set the keyword IGNORE_CONVERGENCE_FAILURE.         *
 *  O/|                                                                        *
 * /| |                                                                        *
 * / \                                                            qs_scf.F:611 *
 *******************************************************************************


 ===== Routine Calling Stack ===== 

            3 scf_env_do_scf
            2 qs_energies
            1 CP2K

 *******************************************************************************
 *   ___                                                                       *
 *  /   \                                                                      *
 * [ABORT]                                                                     *
 *  \___/     SCF run NOT converged. To continue the calculation regardless,   *
 *    |             please set the keyword IGNORE_CONVERGENCE_FAILURE.         *
 *  O/|                                                                        *
 * /| |                                                                        *
 * / \                                                            qs_scf.F:611 *
 *******************************************************************************


 ===== Routine Calling Stack ===== 

            3 scf_env_do_scf
            2 qs_energies
            1 CP2K

 *******************************************************************************
 *   ___                                                                       *
 *  /   \                                                                      *
 * [ABORT]                                                                     *
 *  \___/     SCF run NOT converged. To continue the calculation regardless,   *
 *    |             please set the keyword IGNORE_CONVERGENCE_FAILURE.         *
 *  O/|                                                                        *
 * /| |                                                                        *
 * / \                                                            qs_scf.F:611 *
 *******************************************************************************


 ===== Routine Calling Stack ===== 

            3 scf_env_do_scf
            2 qs_energies
            1 CP2K

 *******************************************************************************
 *   ___                                                                       *
 *  /   \                                                                      *
 * [ABORT]                                                                     *
 *  \___/     SCF run NOT converged. To continue the calculation regardless,   *
 *    |             please set the keyword IGNORE_CONVERGENCE_FAILURE.         *
 *  O/|                                                                        *
 * /| |                                                                        *
 * / \                                                            qs_scf.F:611 *
 *******************************************************************************


 ===== Routine Calling Stack ===== 

            3 scf_env_do_scf
            2 qs_energies
            1 CP2K

 *******************************************************************************
 *   ___                                                                       *
 *  /   \                                                                      *
 * [ABORT]                                                                     *
 *  \___/     SCF run NOT converged. To continue the calculation regardless,   *
 *    |             please set the keyword IGNORE_CONVERGENCE_FAILURE.         *
 *  O/|                                                                        *
 * /| |                                                                        *
 * / \                                                            qs_scf.F:611 *
 *******************************************************************************


 ===== Routine Calling Stack ===== 

            3 scf_env_do_scf
            2 qs_energies
            1 CP2K

 *******************************************************************************
 *   ___                                                                       *
 *  /   \                                                                      *
 * [ABORT]                                                                     *
 *  \___/     SCF run NOT converged. To continue the calculation regardless,   *
 *    |             please set the keyword IGNORE_CONVERGENCE_FAILURE.         *
 *  O/|                                                                        *
 * /| |                                                                        *
 * / \                                                            qs_scf.F:611 *
 *******************************************************************************


 ===== Routine Calling Stack ===== 

            3 scf_env_do_scf
            2 qs_energies
            1 CP2K

 *******************************************************************************
 *   ___                                                                       *
 *  /   \                                                                      *
 * [ABORT]                                                                     *
 *  \___/     SCF run NOT converged. To continue the calculation regardless,   *
 *    |             please set the keyword IGNORE_CONVERGENCE_FAILURE.         *
 *  O/|                                                                        *
 * /| |                                                                        *
 * / \                                                            qs_scf.F:611 *
 *******************************************************************************


 ===== Routine Calling Stack ===== 

            3 scf_env_do_scf
            2 qs_energies
            1 CP2K
