 DBCSR| CPU Multiplication driver                                           BLAS (U)
 DBCSR| Multrec recursion limit                                              512 (U)
 DBCSR| Multiplication stack size                                           1000 (D)
 DBCSR| Maximum elements for images                                    UNLIMITED (U)
 DBCSR| Multiplicative factor virtual images                                   1 (U)
 DBCSR| Use multiplication densification                                       T (D)
 DBCSR| Multiplication size stacks                                             3 (U)
 DBCSR| Use memory pool for CPU allocation                                     F (U)
 DBCSR| Number of 3D layers                                               SINGLE (U)
 DBCSR| Use MPI memory allocation                                              F (U)
 DBCSR| Use RMA algorithm                                                      F (U)
 DBCSR| Use Communication thread                                               T (U)
 DBCSR| Communication thread load                                             75 (D)
 DBCSR| MPI: My process id                                                     0
 DBCSR| MPI: Number of processes                                              24
 DBCSR| OMP: Current number of threads                                         4
 DBCSR| OMP: Max number of threads                                             4
 DBCSR| Split modifier for TAS multiplication algorithm                  1.0E+00 (U)


  **** **** ******  **  PROGRAM STARTED AT               2025-03-15 09:29:51.739
 ***** ** ***  *** **   PROGRAM STARTED ON                          i01r11c05s04
 **    ****   ******    PROGRAM STARTED BY                               di38fab
 ***** **    ** ** **   PROGRAM PROCESS ID                               1733968
  **** **  *******  **  PROGRAM STARTED IN /hppfs/scratch/04/di38fab/05_MOL/W4-1
                                           1+ALK/b2/SZV/GW+BSE/1e-3

 CP2K| version string:                 CP2K version 2025.1 (Development Version)
 CP2K| source code revision number:                                  git:d2e611a
 CP2K| cp2kflags: omp libint fftw3 libxc parallel scalapack max_contr=4         
 CP2K| is freely available from                            https://www.cp2k.org/
 CP2K| Program compiled at                       Thu 06 Mar 2025 05:09:20 PM CET
 CP2K| Program compiled on                                               login02
 CP2K| Program compiled for                                        Supermuc-foss
 CP2K| Data directory path                  /hppfs/work/pn36zo/di38fab/cp2k/data
 CP2K| Input file name                                                    GW.inp

 GLOBAL| Force Environment number                                              1
 GLOBAL| Basis set file name            /hppfs/scratch/04/di38fab/04_TMD/BASIS_A
 GLOBAL| Potential file name            /hppfs/work/pn36zo/di38fab/cp2k/data/ALL
 GLOBAL| MM Potential file name                                     MM_POTENTIAL
 GLOBAL| Coordinate file name                                      __STD_INPUT__
 GLOBAL| Method name                                                        CP2K
 GLOBAL| Project name                                                       MoS2
 GLOBAL| Run type                                                         ENERGY
 GLOBAL| FFT library                                                       FFTW3
 GLOBAL| Diagonalization library                                       ScaLAPACK
 GLOBAL| DGEMM library                                                      BLAS
 GLOBAL| Orthonormality check for eigenvectors                          DISABLED
 GLOBAL| Matrix multiplication library                                 ScaLAPACK
 GLOBAL| All-to-all communication in single precision                          F
 GLOBAL| FFTs using library dependent lengths                                  F
 GLOBAL| Grid backend                                                       AUTO
 GLOBAL| Global print level                                               MEDIUM
 GLOBAL| MPI I/O enabled                                                       T
 GLOBAL| Total number of message passing processes                            24
 GLOBAL| Number of threads for this process                                    4
 GLOBAL| This output is from process                                           0
 GLOBAL| OpenMP stack size per thread (OMP_STACKSIZE)                    default
 GLOBAL| CPU model name             Intel(R) Xeon(R) Platinum 8174 CPU @ 3.10GHz

 MEMORY| system memory details [Kb]
 MEMORY|                        rank 0           min           max       average
 MEMORY| MemTotal             98436664      98436664      98436664      98436664
 MEMORY| MemFree              84125516      84025812      84125516      84075664
 MEMORY| Buffers                     0             0             0             0
 MEMORY| Cached                2415628       2407284       2415628       2411456
 MEMORY| Slab                  1255104       1255104       1266848       1260976
 MEMORY| SReclaimable           279596        279596        288968        284282
 MEMORY| MemLikelyFree        86820740      86722064      86820740      86771402


 *** Fundamental physical constants (SI units) ***

 *** Literature: B. J. Mohr and B. N. Taylor,
 ***             CODATA recommended values of the fundamental physical
 ***             constants: 2006, Web Version 5.1
 ***             http://physics.nist.gov/constants

 Speed of light in vacuum [m/s]                             2.99792458000000E+08
 Magnetic constant or permeability of vacuum [N/A**2]       1.25663706143592E-06
 Electric constant or permittivity of vacuum [F/m]          8.85418781762039E-12
 Planck constant (h) [J*s]                                  6.62606896000000E-34
 Planck constant (h-bar) [J*s]                              1.05457162825177E-34
 Elementary charge [C]                                      1.60217648700000E-19
 Electron mass [kg]                                         9.10938215000000E-31
 Electron g factor [ ]                                     -2.00231930436220E+00
 Proton mass [kg]                                           1.67262163700000E-27
 Fine-structure constant                                    7.29735253760000E-03
 Rydberg constant [1/m]                                     1.09737315685270E+07
 Avogadro constant [1/mol]                                  6.02214179000000E+23
 Boltzmann constant [J/K]                                   1.38065040000000E-23
 Atomic mass unit [kg]                                      1.66053878200000E-27
 Bohr radius [m]                                            5.29177208590000E-11

 *** Conversion factors ***

 [u] -> [a.u.]                                              1.82288848426455E+03
 [Angstrom] -> [Bohr] = [a.u.]                              1.88972613288564E+00
 [a.u.] = [Bohr] -> [Angstrom]                              5.29177208590000E-01
 [a.u.] -> [s]                                              2.41888432650478E-17
 [a.u.] -> [fs]                                             2.41888432650478E-02
 [a.u.] -> [J]                                              4.35974393937059E-18
 [a.u.] -> [N]                                              8.23872205491840E-08
 [a.u.] -> [K]                                              3.15774647902944E+05
 [a.u.] -> [kJ/mol]                                         2.62549961709828E+03
 [a.u.] -> [kcal/mol]                                       6.27509468713739E+02
 [a.u.] -> [Pa]                                             2.94210107994716E+13
 [a.u.] -> [bar]                                            2.94210107994716E+08
 [a.u.] -> [atm]                                            2.90362800883016E+08
 [a.u.] -> [eV]                                             2.72113838565563E+01
 [a.u.] -> [Hz]                                             6.57968392072181E+15
 [a.u.] -> [1/cm] (wave numbers)                            2.19474631370540E+05
 [a.u./Bohr**2] -> [1/cm]                                   5.14048714338585E+03
 

 CELL_TOP| Volume [angstrom^3]:                                     27000.000000
 CELL_TOP| Vector a [angstrom    30.000     0.000     0.000   |a| =    30.000000
 CELL_TOP| Vector b [angstrom     0.000    30.000     0.000   |b| =    30.000000
 CELL_TOP| Vector c [angstrom     0.000     0.000    30.000   |c| =    30.000000
 CELL_TOP| Angle (b,c), alpha [degree]:                                90.000000
 CELL_TOP| Angle (a,c), beta  [degree]:                                90.000000
 CELL_TOP| Angle (a,b), gamma [degree]:                                90.000000
 CELL_TOP| Numerically orthorhombic:                                         YES
 CELL_TOP| Periodicity                                                      NONE

 GENERATE|  Preliminary Number of Bonds generated:                             0
 GENERATE|  Achieved consistency in connectivity generation.

 CELL| Volume [angstrom^3]:                                         27000.000000
 CELL| Vector a [angstrom]:      30.000     0.000     0.000   |a| =    30.000000
 CELL| Vector b [angstrom]:       0.000    30.000     0.000   |b| =    30.000000
 CELL| Vector c [angstrom]:       0.000     0.000    30.000   |c| =    30.000000
 CELL| Angle (b,c), alpha [degree]:                                    90.000000
 CELL| Angle (a,c), beta  [degree]:                                    90.000000
 CELL| Angle (a,b), gamma [degree]:                                    90.000000
 CELL| Numerically orthorhombic:                                             YES
 CELL| Periodicity                                                          NONE

 CELL_REF| Volume [angstrom^3]:                                     27000.000000
 CELL_REF| Vector a [angstrom    30.000     0.000     0.000   |a| =    30.000000
 CELL_REF| Vector b [angstrom     0.000    30.000     0.000   |b| =    30.000000
 CELL_REF| Vector c [angstrom     0.000     0.000    30.000   |c| =    30.000000
 CELL_REF| Angle (b,c), alpha [degree]:                                90.000000
 CELL_REF| Angle (a,c), beta  [degree]:                                90.000000
 CELL_REF| Angle (a,b), gamma [degree]:                                90.000000
 CELL_REF| Numerically orthorhombic:                                         YES
 CELL_REF| Periodicity                                                      NONE

 *******************************************************************************
 *******************************************************************************
 **                                                                           **
 **     #####                         ##              ##                      **
 **    ##   ##            ##          ##              ##                      **
 **   ##     ##                       ##            ######                    **
 **   ##     ##  ##   ##  ##   #####  ##  ##   ####   ##    #####    #####    **
 **   ##     ##  ##   ##  ##  ##      ## ##   ##      ##   ##   ##  ##   ##   **
 **   ##  ## ##  ##   ##  ##  ##      ####     ###    ##   ######   ######    **
 **    ##  ###   ##   ##  ##  ##      ## ##      ##   ##   ##       ##        **
 **     #######   #####   ##   #####  ##  ##  ####    ##    #####   ##        **
 **           ##                                                    ##        **
 **                                                                           **
 **                                                ... make the atoms dance   **
 **                                                                           **
 **            Copyright (C) by CP2K developers group (2000-2025)             **
 **                      J. Chem. Phys. 152, 194103 (2020)                    **
 **                                                                           **
 *******************************************************************************

 DFT| Spin restricted Kohn-Sham (RKS) calculation                            RKS
 DFT| Multiplicity                                                             1
 DFT| Number of spin states                                                    1
 DFT| Charge                                                                   0
 DFT| Self-interaction correction (SIC)                                       NO
 DFT| Cutoffs: density                                              1.000000E-10
 DFT|          gradient                                             1.000000E-10
 DFT|          tau                                                  1.000000E-10
 DFT|          cutoff_smoothing_range                               0.000000E+00
 DFT| XC density smoothing                                                  NONE
 DFT| XC derivatives                                                          PW

 FUNCTIONAL| PBE:
 FUNCTIONAL| J.P.Perdew, K.Burke, M.Ernzerhof, Phys. Rev. Letter, vol. 77, n 18,
 FUNCTIONAL|  pp. 3865-3868, (1996)sx=0.750sc=1.000{spin unpolarized}           


 QS| Method:                                                                GAPW
 QS| Density plane wave grid type                        NON-SPHERICAL FULLSPACE
 QS| Number of grid levels:                                                    4
 QS| Density cutoff [a.u.]:                                                250.0
 QS| Multi grid cutoff [a.u.]: 1) grid level                               250.0
 QS|                           2) grid level                                83.3
 QS|                           3) grid level                                27.8
 QS|                           4) grid level                                 9.3
 QS| Grid level progression factor:                                          3.0
 QS| Relative density cutoff [a.u.]:                                        50.0
 QS| Interaction thresholds: eps_pgf_orb:                                1.0E-12
 QS|                         eps_filter_matrix:                          0.0E+00
 QS|                         eps_core_charge:                            1.0E-14
 QS|                         eps_rho_gspace:                             1.0E-12
 QS|                         eps_rho_rspace:                             1.0E-12
 QS|                         eps_gvg_rspace:                             1.0E-06
 QS|                         eps_ppl:                                    1.0E-02
 QS|                         eps_ppnl:                                   1.0E-08
 QS| GAPW|      One center basis from orbital basis primitives
 QS| GAPW|                   eps_fit:                                    1.0E-04
 QS| GAPW|                   eps_iso:                                    1.0E-12
 QS| GAPW|                   eps_svd:                                    1.0E-08
 QS| GAPW|                   eps_cpc:                                    1.0E-12
 QS| GAPW|   atom-r-grid: quadrature:                                     GC_LOG
 QS| GAPW|      atom-s-grid:  max l :                                          4
 QS| GAPW|      max_l_rho0 :                                                   2


 ATOMIC KIND INFORMATION

  1. Atomic kind: B                                     Number of atoms:       2

     Orbital Basis Set                                         aug-SZV-MOLOPT-ae

       Number of orbital shell sets:                                           2
       Number of orbital shells:                                               6
       Number of primitive Cartesian functions:                               13
       Number of Cartesian basis functions:                                   15
       Number of spherical basis functions:                                   14
       Norm type:                                                              2

       Normalised Cartesian orbitals:

                        Set   Shell   Orbital            Exponent    Coefficient

                          1       1    1s                0.109280       0.032606
                                                         0.155613       0.000000
                                                         0.238409       0.144712
                                                         0.548949       0.113742
                                                         1.426820      -0.031435
                                                         4.590809      -0.105038
                                                        23.194561      -0.099829

                          1       2    2s                0.109280      -0.049098
                                                         0.155613      -0.119813
                                                         0.238409      -0.025283
                                                         0.548949       0.056653
                                                         1.426820       0.132404
                                                         4.590809       0.000000
                                                        23.194561       0.000000

                          1       3    2px               0.109280       0.009109
                                                         0.155613       0.000000
                                                         0.238409       0.101125
                                                         0.548949       0.281559
                                                         1.426820       0.386539
                                                         4.590809       0.360915
                                                        23.194561       0.272788
                          1       3    2py               0.109280       0.009109
                                                         0.155613       0.000000
                                                         0.238409       0.101125
                                                         0.548949       0.281559
                                                         1.426820       0.386539
                                                         4.590809       0.360915
                                                        23.194561       0.272788
                          1       3    2pz               0.109280       0.009109
                                                         0.155613       0.000000
                                                         0.238409       0.101125
                                                         0.548949       0.281559
                                                         1.426820       0.386539
                                                         4.590809       0.360915
                                                        23.194561       0.272788

                          1       4    3px               0.109280       0.062233
                                                         0.155613       0.035668
                                                         0.238409       0.015304
                                                         0.548949      -0.003054
                                                         1.426820       0.021875
                                                         4.590809       0.000000
                                                        23.194561       0.000000
                          1       4    3py               0.109280       0.062233
                                                         0.155613       0.035668
                                                         0.238409       0.015304
                                                         0.548949      -0.003054
                                                         1.426820       0.021875
                                                         4.590809       0.000000
                                                        23.194561       0.000000
                          1       4    3pz               0.109280       0.062233
                                                         0.155613       0.035668
                                                         0.238409       0.015304
                                                         0.548949      -0.003054
                                                         1.426820       0.021875
                                                         4.590809       0.000000
                                                        23.194561       0.000000

                          1       5    3dx2              0.109280       0.000986
                                                         0.155613       0.002022
                                                         0.238409       0.109458
                                                         0.548949       0.095099
                                                         1.426820       0.028232
                                                         4.590809       0.000000
                                                        23.194561       0.000000
                          1       5    3dxy              0.109280       0.001708
                                                         0.155613       0.003503
                                                         0.238409       0.189586
                                                         0.548949       0.164717
                                                         1.426820       0.048900
                                                         4.590809       0.000000
                                                        23.194561       0.000000
                          1       5    3dxz              0.109280       0.001708
                                                         0.155613       0.003503
                                                         0.238409       0.189586
                                                         0.548949       0.164717
                                                         1.426820       0.048900
                                                         4.590809       0.000000
                                                        23.194561       0.000000
                          1       5    3dy2              0.109280       0.000986
                                                         0.155613       0.002022
                                                         0.238409       0.109458
                                                         0.548949       0.095099
                                                         1.426820       0.028232
                                                         4.590809       0.000000
                                                        23.194561       0.000000
                          1       5    3dyz              0.109280       0.001708
                                                         0.155613       0.003503
                                                         0.238409       0.189586
                                                         0.548949       0.164717
                                                         1.426820       0.048900
                                                         4.590809       0.000000
                                                        23.194561       0.000000
                          1       5    3dz2              0.109280       0.000986
                                                         0.155613       0.002022
                                                         0.238409       0.109458
                                                         0.548949       0.095099
                                                         1.426820       0.028232
                                                         4.590809       0.000000
                                                        23.194561       0.000000

                          2       1    1s              506.011837       0.696781
                                                        92.776716       1.051665
                                                        25.955582       1.381280
                                                         8.916443       1.362748
                                                         3.462516       0.753460
                                                         1.426055       0.121219

     RI Auxiliary Basis Set             RI_aug-SZV-MOLOPT-ae_N_RI_025_s_p_d_f_g_

       Number of orbital shell sets:                                           9
       Number of orbital shells:                                               9
       Number of primitive Cartesian functions:                                9
       Number of Cartesian basis functions:                                   29
       Number of spherical basis functions:                                   25
       Norm type:                                                              2

       Normalised Cartesian orbitals:

                        Set   Shell   Orbital            Exponent    Coefficient

                          1       1    1s                0.250341       0.252237

                          2       1    5px               0.273284       0.281648
                          2       1    5py               0.273284       0.281648
                          2       1    5pz               0.273284       0.281648

                          3       1    8dx2              0.455299       0.415363
                          3       1    8dxy              0.455299       0.719430
                          3       1    8dxz              0.455299       0.719430
                          3       1    8dy2              0.455299       0.415363
                          3       1    8dyz              0.455299       0.719430
                          3       1    8dz2              0.455299       0.415363

                          4       1    9fx3              0.675974       0.609953
                          4       1    9fx2y             0.675974       1.363897
                          4       1    9fx2z             0.675974       1.363897
                          4       1    9fxy2             0.675974       1.363897
                          4       1    9fxyz             0.675974       2.362339
                          4       1    9fxz2             0.675974       1.363897
                          4       1    9fy3              0.675974       0.609953
                          4       1    9fy2z             0.675974       1.363897
                          4       1    9fyz2             0.675974       1.363897
                          4       1    9fz3              0.675974       0.609953

                          5       1    6px               0.737183       0.973664
                          5       1    6py               0.737183       0.973664
                          5       1    6pz               0.737183       0.973664

                          6       1    2s                0.787813       0.595974

                          7       1    3s                5.974522       2.723563

                          8       1    7px               7.247300      16.949636
                          8       1    7py               7.247300      16.949636
                          8       1    7pz               7.247300      16.949636

                          9       1    4s               47.432595      12.881539

       Atomic covalent radius [Angstrom]:                                  0.820

       Atomic van der Waals radius [Angstrom]:                             1.920

     The atoms of this atomic kind are PAW atoms (GAPW):
       Hard Gaussian function radius:                                      1.512
       Rho0 radius:                                                        1.512
       Maximum GTO radius used for PAW projector construction:            24.566

     GAPW Soft Basis Set                                  aug-SZV-MOLOPT-ae_soft

       Number of orbital shell sets:                                           2
       Number of orbital shells:                                               6
       Number of primitive Cartesian functions:                                7
       Number of Cartesian basis functions:                                   15
       Number of spherical basis functions:                                   14
       Norm type:                                                              2

       Normalised Cartesian orbitals:

                        Set   Shell   Orbital            Exponent    Coefficient

                          1       1    1s                0.109280       0.032606
                                                         0.155613       0.000000
                                                         0.238409       0.144712
                                                         0.548949       0.113742
                                                         1.426820      -0.031435

                          1       2    2s                0.109280      -0.049098
                                                         0.155613      -0.119813
                                                         0.238409      -0.025283
                                                         0.548949       0.056653
                                                         1.426820       0.132404

                          1       3    2px               0.109280       0.009109
                                                         0.155613       0.000000
                                                         0.238409       0.101125
                                                         0.548949       0.281559
                                                         1.426820       0.386539
                          1       3    2py               0.109280       0.009109
                                                         0.155613       0.000000
                                                         0.238409       0.101125
                                                         0.548949       0.281559
                                                         1.426820       0.386539
                          1       3    2pz               0.109280       0.009109
                                                         0.155613       0.000000
                                                         0.238409       0.101125
                                                         0.548949       0.281559
                                                         1.426820       0.386539

                          1       4    3px               0.109280       0.062233
                                                         0.155613       0.035668
                                                         0.238409       0.015304
                                                         0.548949      -0.003054
                                                         1.426820       0.021875
                          1       4    3py               0.109280       0.062233
                                                         0.155613       0.035668
                                                         0.238409       0.015304
                                                         0.548949      -0.003054
                                                         1.426820       0.021875
                          1       4    3pz               0.109280       0.062233
                                                         0.155613       0.035668
                                                         0.238409       0.015304
                                                         0.548949      -0.003054
                                                         1.426820       0.021875

                          1       5    3dx2              0.109280       0.000986
                                                         0.155613       0.002022
                                                         0.238409       0.109458
                                                         0.548949       0.095099
                                                         1.426820       0.028232
                          1       5    3dxy              0.109280       0.001708
                                                         0.155613       0.003503
                                                         0.238409       0.189586
                                                         0.548949       0.164717
                                                         1.426820       0.048900
                          1       5    3dxz              0.109280       0.001708
                                                         0.155613       0.003503
                                                         0.238409       0.189586
                                                         0.548949       0.164717
                                                         1.426820       0.048900
                          1       5    3dy2              0.109280       0.000986
                                                         0.155613       0.002022
                                                         0.238409       0.109458
                                                         0.548949       0.095099
                                                         1.426820       0.028232
                          1       5    3dyz              0.109280       0.001708
                                                         0.155613       0.003503
                                                         0.238409       0.189586
                                                         0.548949       0.164717
                                                         1.426820       0.048900
                          1       5    3dz2              0.109280       0.000986
                                                         0.155613       0.002022
                                                         0.238409       0.109458
                                                         0.548949       0.095099
                                                         1.426820       0.028232

                          2       1    1s                3.462516       0.753460
                                                         1.426055       0.121219

     AE Potential information for                                            ALL

       Description:                                       All-electron potential
                                          Krack, Parrinello, PCCP 2, 2105 (2000)

       Gaussian exponent of the core charge distribution:               2.655410
       Electronic configuration (s p d ...):                           4   1   0


 MOLECULE KIND INFORMATION


 All atoms are their own molecule, skipping detailed information


 TOTAL NUMBERS AND MAXIMUM NUMBERS

  Total number of            - Atomic kinds:                                   1
                             - Atoms:                                          2
                             - Shell sets:                                     4
                             - Shells:                                        12
                             - Primitive Cartesian functions:                 26
                             - Cartesian basis functions:                     30
                             - Spherical basis functions:                     28

  Maximum angular momentum of the orbital basis functions:                     2


 MODULE QUICKSTEP: ATOMIC COORDINATES IN ANGSTROM

   Atom Kind Element         X             Y             Z       Z(eff)     Mass
      1    1 B     5     15.793777     15.000000     15.000000   5.0000  10.8110
      2    1 B     5     14.206223     15.000000     15.000000   5.0000  10.8110



 SCF PARAMETERS         Density guess:                                    ATOMIC
                        --------------------------------------------------------
                        max_scf:                                             500
                        max_scf_history:                                       0
                        max_diis:                                              4
                        --------------------------------------------------------
                        eps_scf:                                        1.00E-06
                        eps_scf_history:                                0.00E+00
                        eps_diis:                                       1.00E-01
                        eps_eigval:                                     1.00E-05
                        --------------------------------------------------------
                        level_shift [a.u.]:                             0.000000
                        added MOs                                        23    0
                        --------------------------------------------------------
                        Mixing method:                            BROYDEN_MIXING
                                                charge density mixing in g-space
                        --------------------------------------------------------
                        No outer SCF

 PW_GRID| Information for grid number                                          1
 PW_GRID| Grid distributed over                                    24 processors
 PW_GRID| Real space group dimensions                                    24    1
 PW_GRID| the grid is blocked:                                                NO
 PW_GRID| Cutoff [a.u.]                                                    250.0
 PW_GRID| spherical cutoff:                                                   NO
 PW_GRID|   Bounds   1           -202     202                Points:         405
 PW_GRID|   Bounds   2           -202     202                Points:         405
 PW_GRID|   Bounds   3           -202     202                Points:         405
 PW_GRID| Volume element (a.u.^3)  0.2743E-02     Volume (a.u.^3)    182205.0337
 PW_GRID| Grid span                                                    FULLSPACE
 PW_GRID|   Distribution                         Average         Max         Min
 PW_GRID|   G-Vectors                          2767921.9     2768175     2767770
 PW_GRID|   G-Rays                                6834.4        6835        6834
 PW_GRID|   Real Space Points                  2767921.9     2788425     2624400

 PW_GRID| Information for grid number                                          2
 PW_GRID| Number of the reference grid                                         1
 PW_GRID| Grid distributed over                                    24 processors
 PW_GRID| Real space group dimensions                                    24    1
 PW_GRID| the grid is blocked:                                                NO
 PW_GRID| Cutoff [a.u.]                                                     83.3
 PW_GRID| spherical cutoff:                                                   NO
 PW_GRID|   Bounds   1           -120     119                Points:         240
 PW_GRID|   Bounds   2           -120     119                Points:         240
 PW_GRID|   Bounds   3           -120     119                Points:         240
 PW_GRID| Volume element (a.u.^3)  0.1318E-01     Volume (a.u.^3)    182205.0337
 PW_GRID| Grid span                                                    FULLSPACE
 PW_GRID|   Distribution                         Average         Max         Min
 PW_GRID|   G-Vectors                           576000.0      576240      575760
 PW_GRID|   G-Rays                                2400.0        2401        2399
 PW_GRID|   Real Space Points                   576000.0      576000      576000

 PW_GRID| Information for grid number                                          3
 PW_GRID| Number of the reference grid                                         1
 PW_GRID| Grid distributed over                                    24 processors
 PW_GRID| Real space group dimensions                                    24    1
 PW_GRID| the grid is blocked:                                                NO
 PW_GRID| Cutoff [a.u.]                                                     27.8
 PW_GRID| spherical cutoff:                                                   NO
 PW_GRID|   Bounds   1            -67      67                Points:         135
 PW_GRID|   Bounds   2            -67      67                Points:         135
 PW_GRID|   Bounds   3            -67      67                Points:         135
 PW_GRID| Volume element (a.u.^3)  0.7406E-01     Volume (a.u.^3)    182205.0337
 PW_GRID| Grid span                                                    FULLSPACE
 PW_GRID|   Distribution                         Average         Max         Min
 PW_GRID|   G-Vectors                           102515.6      102735      102330
 PW_GRID|   G-Rays                                 759.4         761         758
 PW_GRID|   Real Space Points                   102515.6      109350       91125

 PW_GRID| Information for grid number                                          4
 PW_GRID| Number of the reference grid                                         1
 PW_GRID| Grid distributed over                                    24 processors
 PW_GRID| Real space group dimensions                                    24    1
 PW_GRID| the grid is blocked:                                                NO
 PW_GRID| Cutoff [a.u.]                                                      9.3
 PW_GRID| spherical cutoff:                                                   NO
 PW_GRID|   Bounds   1            -40      39                Points:          80
 PW_GRID|   Bounds   2            -40      39                Points:          80
 PW_GRID|   Bounds   3            -40      39                Points:          80
 PW_GRID| Volume element (a.u.^3)  0.3559         Volume (a.u.^3)    182205.0337
 PW_GRID| Grid span                                                    FULLSPACE
 PW_GRID|   Distribution                         Average         Max         Min
 PW_GRID|   G-Vectors                            21333.3       21360       21280
 PW_GRID|   G-Rays                                 266.7         267         266
 PW_GRID|   Real Space Points                    21333.3       25600       19200

 POISSON| Solver                                                         WAVELET
 POISSON| Wavelet| Scaling function                                           40
 POISSON| Periodicity                                                       NONE

 RS_GRID| Information for grid number                                          1
 RS_GRID|   Bounds   1           -202     202                Points:         405
 RS_GRID|   Bounds   2           -202     202                Points:         405
 RS_GRID|   Bounds   3           -202     202                Points:         405
 RS_GRID| Real space distribution over                                  4 groups
 RS_GRID| Real space distribution along direction                              2
 RS_GRID| Border size                                                         32
 RS_GRID| Real space distribution over                                  6 groups
 RS_GRID| Real space distribution along direction                              3
 RS_GRID| Border size                                                         32
 RS_GRID|   Distribution                         Average         Max         Min
 RS_GRID|   Planes                                 165.2         166         165
 RS_GRID|   Distribution                         Average         Max         Min
 RS_GRID|   Planes                                 131.5         132         131

 RS_GRID| Information for grid number                                          2
 RS_GRID|   Bounds   1           -120     119                Points:         240
 RS_GRID|   Bounds   2           -120     119                Points:         240
 RS_GRID|   Bounds   3           -120     119                Points:         240
 RS_GRID| Real space distribution over                                  4 groups
 RS_GRID| Real space distribution along direction                              2
 RS_GRID| Border size                                                         34
 RS_GRID| Real space distribution over                                  6 groups
 RS_GRID| Real space distribution along direction                              3
 RS_GRID| Border size                                                         34
 RS_GRID|   Distribution                         Average         Max         Min
 RS_GRID|   Planes                                 128.0         128         128
 RS_GRID|   Distribution                         Average         Max         Min
 RS_GRID|   Planes                                 108.0         108         108

 RS_GRID| Information for grid number                                          3
 RS_GRID|   Bounds   1            -67      67                Points:         135
 RS_GRID|   Bounds   2            -67      67                Points:         135
 RS_GRID|   Bounds   3            -67      67                Points:         135
 RS_GRID| Real space fully replicated
 RS_GRID| Group size                                                           1

 RS_GRID| Information for grid number                                          4
 RS_GRID|   Bounds   1            -40      39                Points:          80
 RS_GRID|   Bounds   2            -40      39                Points:          80
 RS_GRID|   Bounds   3            -40      39                Points:          80
 RS_GRID| Real space fully replicated
 RS_GRID| Group size                                                           1

  HFX_INFO| Replica ID:                                                        1
  HFX_INFO| FRACTION:                                               0.2500000000
  HFX_INFO| Interaction Potential:                                       COULOMB
  HFX_INFO| EPS_SCHWARZ:                                                 1.0E-10
  HFX_INFO| EPS_SCHWARZ_FORCES                                           1.0E-08
  HFX_INFO| EPS_STORAGE_SCALING:                                         1.0E+00
  HFX_INFO| NBINS:                                                            64
  HFX_INFO| BLOCK_SIZE:                                                        1
  HFX_INFO| Number of periodic shells considered:                           NONE
  HFX_INFO| Number of periodic cells considered:                            NONE

 
 RI-RPA| using GPW style
 

 OVERLAP MATRIX CONDITION NUMBER
 1-Norm Condition Number (Estimate)
   CN : |A|*|A^-1|:  4.590E+000 *  1.332E+002   = 6.114E+002  Log(1-CN):  2.7863
 1-Norm and 2-Norm Condition Numbers using Diagonalization
   CN : |A|*|A^-1|:  4.590E+000 *  1.332E+002   = 6.114E+002  Log(1-CN):  2.7863
   CN : max/min ev:  3.636E+000 /  1.176E-002   = 3.092E+002  Log(2-CN):  2.4903

 Number of electrons:                                                         10
 Number of occupied orbitals:                                                  5
 Number of molecular orbitals:                                                28

 Number of orbital functions:                                                 28
 Number of independent orbital functions:                                     28

 Extrapolation method: initial_guess

 Atomic guess: The first density matrix is obtained in terms of atomic orbitals
               and electronic configurations assigned to each atomic kind

 Guess for atomic kind: B

 Electronic structure
    Total number of core electrons                                          0.00
    Total number of valence electrons                                       5.00
    Total number of electrons                                               5.00
    Multiplicity                                                   not specified
    S      2.00  2.00
    P      1.00


 *******************************************************************************
                  Iteration          Convergence                     Energy [au]
 *******************************************************************************
                          1        0.612489E-01                 -24.304439508901
                          2        0.220484E-01                 -24.305945213911
                          3        0.367076E-03                 -24.306247196960
                          4        0.456899E-05                 -24.306247340970
                          5        0.241868E-07                 -24.306247340986

 Energy components [Hartree]           Total Energy ::          -24.306247340986
                                        Band Energy ::          -13.825803348850
                                     Kinetic Energy ::           23.970530113188
                                   Potential Energy ::          -48.276777454174
                                      Virial (-V/T) ::            2.014005415242
                                        Core Energy ::          -32.361048727638
                                          XC Energy ::           -3.546375173816
                                     Coulomb Energy ::           11.601176560468

 Orbital energies  State     L     Occupation   Energy[a.u.]          Energy[eV]

                       1     0          2.000      -6.531739         -177.737651
                       2     0          2.000      -0.324835           -8.839199

                       1     1          1.000      -0.112657           -3.065543


 Total Electron Density at R=0:                                        58.671969
 Re-scaling the density matrix to get the right number of electrons
                  # Electrons              Trace(P)               Scaling factor
                           10                10.000                        1.000


 SCF WAVEFUNCTION OPTIMIZATION

  Step     Update method      Time    Convergence         Total energy    Change
  ------------------------------------------------------------------------------

  HFX_MEM_INFO| Est. max. program size before HFX [MiB]:                    2122
  HFX_MEM_INFO| Number of cart. primitive ERI's calculated:            188947463
  HFX_MEM_INFO| Number of sph. ERI's calculated:                          230496
  HFX_MEM_INFO| Number of sph. ERI's stored in-core:                      230496
  HFX_MEM_INFO| Number of sph. ERI's stored on disk:                           0
  HFX_MEM_INFO| Number of sph. ERI's calculated on the fly:                    0
  HFX_MEM_INFO| Total memory consumption ERI's RAM [MiB]:                      2
  HFX_MEM_INFO| Whereof max-vals [MiB]:                                        1
  HFX_MEM_INFO| Total compression factor ERI's RAM:                         1.11
  HFX_MEM_INFO| Total memory consumption ERI's disk [MiB]:                     0
  HFX_MEM_INFO| Total compression factor ERI's disk:                        0.00
  HFX_MEM_INFO| Size of density/Fock matrix [MiB]:                             0
  HFX_MEM_INFO| Size of buffers [MiB]:                                         0
  HFX_MEM_INFO| Est. max. program size after HFX  [MiB]:                    2632

     1 NoMix/Diag. 0.10E+00    8.3     0.34372936       -49.3968786203 -4.94E+01
     2 Broy./Diag. 0.10E+00    4.7     0.03842326       -49.2120607826  1.85E-01
     3 Broy./Diag. 0.10E+00    4.9     0.00885435       -49.1549301693  5.71E-02
     4 Broy./Diag. 0.10E+00    4.9     0.02731981       -49.1349865979  1.99E-02
     5 Broy./Diag. 0.10E+00    4.9     0.00525211       -49.1938581711 -5.89E-02
     6 Broy./Diag. 0.10E+00    4.9     0.00522520       -49.2155747366 -2.17E-02
     7 Broy./Diag. 0.10E+00    4.9     0.00168646       -49.2353916473 -1.98E-02
     8 Broy./Diag. 0.10E+00    5.0     0.00049390       -49.2390747167 -3.68E-03
     9 Broy./Diag. 0.10E+00    5.2     0.00225132       -49.2361115356  2.96E-03
    10 Broy./Diag. 0.10E+00    5.3     0.00069724       -49.2334301895  2.68E-03
    11 Broy./Diag. 0.10E+00    5.3     0.00030185       -49.2294604556  3.97E-03
    12 Broy./Diag. 0.10E+00    5.3     0.00044419       -49.2292752452  1.85E-04
    13 Broy./Diag. 0.10E+00    5.3     0.00009040       -49.2299834335 -7.08E-04
    14 Broy./Diag. 0.10E+00    5.3     0.00053165       -49.2297863530  1.97E-04
    15 Broy./Diag. 0.10E+00    5.3     0.00021417       -49.2307849884 -9.99E-04
    16 Broy./Diag. 0.10E+00    5.3     0.00018248       -49.2313535897 -5.69E-04
    17 Broy./Diag. 0.10E+00    5.3     0.00009628       -49.2313049889  4.86E-05
    18 Broy./Diag. 0.10E+00    5.3     0.00002686       -49.2310764903  2.28E-04
    19 Broy./Diag. 0.10E+00    5.3     0.00007754       -49.2304146841  6.62E-04
    20 Broy./Diag. 0.10E+00    5.3     0.00003908       -49.2301979376  2.17E-04
    21 Broy./Diag. 0.10E+00    5.3     0.00001799       -49.2300299371  1.68E-04
    22 Broy./Diag. 0.10E+00    5.3     0.00008116       -49.2298891751  1.41E-04
    23 Broy./Diag. 0.10E+00    5.4     0.00003394       -49.2299127929 -2.36E-05
    24 Broy./Diag. 0.10E+00    5.3     0.00001594       -49.2299489479 -3.62E-05
    25 Broy./Diag. 0.10E+00    5.3     0.00006950       -49.2300606642 -1.12E-04
    26 Broy./Diag. 0.10E+00    5.3     0.00006030       -49.2300970248 -3.64E-05
    27 Broy./Diag. 0.10E+00    5.3     0.00004901       -49.2301089528 -1.19E-05
    28 Broy./Diag. 0.10E+00    5.4     0.00005447       -49.2301283906 -1.94E-05
    29 Broy./Diag. 0.10E+00    5.4     0.00004835       -49.2301477056 -1.93E-05
    30 Broy./Diag. 0.10E+00    5.3     0.00004623       -49.2301496026 -1.90E-06
    31 Broy./Diag. 0.10E+00    5.3     0.00006519       -49.2301572627 -7.66E-06
    32 Broy./Diag. 0.10E+00    5.3     0.00009626       -49.2301601268 -2.86E-06
    33 Broy./Diag. 0.10E+00    5.3     0.00014255       -49.2301642806 -4.15E-06
    34 Broy./Diag. 0.10E+00    5.3     0.00021250       -49.2301692821 -5.00E-06
    35 Broy./Diag. 0.10E+00    5.3     0.00031262       -49.2301528581  1.64E-05
    36 Broy./Diag. 0.10E+00    5.3     0.00046951       -49.2301323185  2.05E-05
    37 Broy./Diag. 0.10E+00    5.4     0.00069137       -49.2301254126  6.91E-06
    38 Broy./Diag. 0.10E+00    5.3     0.00102433       -49.2301292287 -3.82E-06
    39 Broy./Diag. 0.10E+00    5.3     0.00152696       -49.2301289868  2.42E-07
    40 Broy./Diag. 0.10E+00    5.4     0.00227610       -49.2301490675 -2.01E-05
    41 Broy./Diag. 0.10E+00    5.4     0.00339215       -49.2301676504 -1.86E-05
    42 Broy./Diag. 0.10E+00    5.3     0.00504876       -49.2302129958 -4.53E-05
    43 Broy./Diag. 0.10E+00    5.3     0.00750348       -49.2302876810 -7.47E-05
    44 Broy./Diag. 0.10E+00    5.3     0.01112251       -49.2301728310  1.15E-04
    45 Broy./Diag. 0.10E+00    5.3     0.01637050       -49.2300489473  1.24E-04
    46 Broy./Diag. 0.10E+00    5.3     0.02362740       -49.2300008895  4.81E-05
    47 Broy./Diag. 0.10E+00    5.3     0.03271148       -49.2299763642  2.45E-05
    48 Broy./Diag. 0.10E+00    5.3     0.04144110       -49.2298787021  9.77E-05
    49 Broy./Diag. 0.10E+00    5.3     0.04432539       -49.2296738851  2.05E-04
    50 Broy./Diag. 0.10E+00    5.4     0.05696695       -49.2291809910  4.93E-04
    51 Broy./Diag. 0.10E+00    5.3     0.06621823       -49.2282783254  9.03E-04
    52 Broy./Diag. 0.10E+00    5.3     0.06210709       -49.2270647404  1.21E-03
    53 Broy./Diag. 0.10E+00    5.3     0.04962506       -49.2253688289  1.70E-03
    54 Broy./Diag. 0.10E+00    5.4     0.03567462       -49.2236657345  1.70E-03
    55 Broy./Diag. 0.10E+00    5.3     0.02434715       -49.2224333905  1.23E-03
    56 Broy./Diag. 0.10E+00    5.3     0.02133556       -49.2215679011  8.65E-04
    57 Broy./Diag. 0.10E+00    5.3     0.01759757       -49.2209635537  6.04E-04
    58 Broy./Diag. 0.10E+00    5.3     0.01412518       -49.2205746990  3.89E-04
    59 Broy./Diag. 0.10E+00    5.3     0.01140642       -49.2205247580  4.99E-05
    60 Broy./Diag. 0.10E+00    5.3     0.00899499       -49.2191049127  1.42E-03
    61 Broy./Diag. 0.10E+00    5.4     0.00765226       -49.2229675127 -3.86E-03
    62 Broy./Diag. 0.10E+00    5.3     0.00815425       -49.2185085065  4.46E-03
    63 Broy./Diag. 0.10E+00    5.3     0.00445002       -49.2093446465  9.16E-03
    64 Broy./Diag. 0.10E+00    5.4     0.01671667       -49.2160146598 -6.67E-03
    65 Broy./Diag. 0.10E+00    5.4     0.00883666       -49.2366914338 -2.07E-02
    66 Broy./Diag. 0.10E+00    5.3     0.01465937       -49.3054779298 -6.88E-02
    67 Broy./Diag. 0.10E+00    5.3     0.02319946       -49.3706555163 -6.52E-02
    68 Broy./Diag. 0.10E+00    5.3     0.04960090       -49.3026323061  6.80E-02
    69 Broy./Diag. 0.10E+00    5.3     0.07406937       -49.1977080818  1.05E-01
    70 Broy./Diag. 0.10E+00    5.4     0.05685446       -49.1862520424  1.15E-02
    71 Broy./Diag. 0.10E+00    5.3     0.06784399       -49.1938770285 -7.62E-03
    72 Broy./Diag. 0.10E+00    5.4     0.06639312       -49.1641017497  2.98E-02
    73 Broy./Diag. 0.10E+00    5.4     0.05626719       -49.1438089550  2.03E-02
    74 Broy./Diag. 0.10E+00    5.4     0.04459261       -49.1438112685 -2.31E-06
    75 Broy./Diag. 0.10E+00    5.3     0.04823720       -49.1347994482  9.01E-03
    76 Broy./Diag. 0.10E+00    5.3     0.03177005       -49.1456011347 -1.08E-02
    77 Broy./Diag. 0.10E+00    5.3     0.01631072       -49.1354122081  1.02E-02
    78 Broy./Diag. 0.10E+00    5.3     0.01877281       -49.1444457927 -9.03E-03
    79 Broy./Diag. 0.10E+00    5.2     0.01815878       -49.1621148601 -1.77E-02
    80 Broy./Diag. 0.10E+00    5.2     0.02068078       -49.2073636891 -4.52E-02
    81 Broy./Diag. 0.10E+00    5.3     0.06083580       -49.2336695677 -2.63E-02
    82 Broy./Diag. 0.10E+00    5.2     0.06799426       -49.2333849093  2.85E-04
    83 Broy./Diag. 0.10E+00    5.3     0.10361617       -49.2549167823 -2.15E-02
    84 Broy./Diag. 0.10E+00    5.3     0.07239741       -49.2688584848 -1.39E-02
    85 Broy./Diag. 0.10E+00    5.3     0.13089329       -49.2856178552 -1.68E-02
    86 Broy./Diag. 0.10E+00    5.3     0.09684535       -49.2831124924  2.51E-03
    87 Broy./Diag. 0.10E+00    5.3     0.07972594       -49.2316914435  5.14E-02
    88 Broy./Diag. 0.10E+00    5.3     0.07229771       -49.1648443172  6.68E-02
    89 Broy./Diag. 0.10E+00    5.5     0.05371342       -49.1243612196  4.05E-02
    90 Broy./Diag. 0.10E+00    5.4     0.03980066       -49.1612545514 -3.69E-02
    91 Broy./Diag. 0.10E+00    5.3     0.05879299       -49.1997495985 -3.85E-02
    92 Broy./Diag. 0.10E+00    5.3     0.04280767       -49.2410002088 -4.13E-02
    93 Broy./Diag. 0.10E+00    5.2     0.04840133       -49.2623426657 -2.13E-02
    94 Broy./Diag. 0.10E+00    5.2     0.06181029       -49.2740078494 -1.17E-02
    95 Broy./Diag. 0.10E+00    5.2     0.06376328       -49.2716815700  2.33E-03
    96 Broy./Diag. 0.10E+00    5.2     0.06431924       -49.2697180613  1.96E-03
    97 Broy./Diag. 0.10E+00    5.3     0.04675865       -49.2495438346  2.02E-02
    98 Broy./Diag. 0.10E+00    5.2     0.02966546       -49.2362119405  1.33E-02
    99 Broy./Diag. 0.10E+00    5.2     0.05667120       -49.2238787493  1.23E-02
   100 Broy./Diag. 0.10E+00    5.3     0.07032393       -49.2110787337  1.28E-02
   101 Broy./Diag. 0.10E+00    5.3     0.05884447       -49.1923016512  1.88E-02
   102 Broy./Diag. 0.10E+00    5.3     0.04667869       -49.1734163831  1.89E-02
   103 Broy./Diag. 0.10E+00    5.3     0.03254859       -49.1666363198  6.78E-03
   104 Broy./Diag. 0.10E+00    5.2     0.03224652       -49.1559755246  1.07E-02
   105 Broy./Diag. 0.10E+00    5.3     0.03351030       -49.1740593914 -1.81E-02
   106 Broy./Diag. 0.10E+00    5.3     0.03730330       -49.1207812346  5.33E-02
   107 Broy./Diag. 0.10E+00    5.4     0.16722216       -49.1350364403 -1.43E-02
   108 Broy./Diag. 0.10E+00    5.3     0.10888376       -49.2068780674 -7.18E-02
   109 Broy./Diag. 0.10E+00    5.3     0.07491257       -49.2219475972 -1.51E-02
   110 Broy./Diag. 0.10E+00    5.3     0.05723397       -49.2126316919  9.32E-03
   111 Broy./Diag. 0.10E+00    5.3     0.06367663       -49.2003582522  1.23E-02
   112 Broy./Diag. 0.10E+00    5.4     0.05369341       -49.1971349090  3.22E-03
   113 Broy./Diag. 0.10E+00    5.4     0.03185757       -49.1942584592  2.88E-03
   114 Broy./Diag. 0.10E+00    5.4     0.07261771       -49.2087017269 -1.44E-02
   115 Broy./Diag. 0.10E+00    5.3     0.06138870       -49.2515335634 -4.28E-02
   116 Broy./Diag. 0.10E+00    5.4     0.05618538       -49.2551572782 -3.62E-03
   117 Broy./Diag. 0.10E+00    5.3     0.04863417       -49.2620621206 -6.90E-03
   118 Broy./Diag. 0.10E+00    5.3     0.03629924       -49.2631497640 -1.09E-03
   119 Broy./Diag. 0.10E+00    5.3     0.01927475       -49.2604013838  2.75E-03
   120 Broy./Diag. 0.10E+00    5.2     0.01101627       -49.2501176719  1.03E-02
   121 Broy./Diag. 0.10E+00    5.3     0.02290251       -49.2420699960  8.05E-03
   122 Broy./Diag. 0.10E+00    5.3     0.02711563       -49.2400748107  2.00E-03
   123 Broy./Diag. 0.10E+00    5.3     0.02202445       -49.2448434051 -4.77E-03
   124 Broy./Diag. 0.10E+00    5.3     0.03622129       -49.2403695244  4.47E-03
   125 Broy./Diag. 0.10E+00    5.2     0.04261486       -49.2350490446  5.32E-03
   126 Broy./Diag. 0.10E+00    5.2     0.05485724       -49.2298718507  5.18E-03
   127 Broy./Diag. 0.10E+00    5.2     0.05416068       -49.2248041613  5.07E-03
   128 Broy./Diag. 0.10E+00    5.3     0.06402888       -49.2235984643  1.21E-03
   129 Broy./Diag. 0.10E+00    5.4     0.03404875       -49.2271615311 -3.56E-03
   130 Broy./Diag. 0.10E+00    5.3     0.02168958       -49.2406507745 -1.35E-02
   131 Broy./Diag. 0.10E+00    5.3     0.02110795       -49.2478863587 -7.24E-03
   132 Broy./Diag. 0.10E+00    5.3     0.02494054       -49.2569327812 -9.05E-03
   133 Broy./Diag. 0.10E+00    5.3     0.03124155       -49.2603688337 -3.44E-03
   134 Broy./Diag. 0.10E+00    5.3     0.02589670       -49.2571513329  3.22E-03
   135 Broy./Diag. 0.10E+00    5.4     0.02331868       -49.2527646740  4.39E-03
   136 Broy./Diag. 0.10E+00    5.3     0.03590846       -49.2509449949  1.82E-03
   137 Broy./Diag. 0.10E+00    5.3     0.03511968       -49.2473462643  3.60E-03
   138 Broy./Diag. 0.10E+00    5.3     0.03315424       -49.2467378481  6.08E-04
   139 Broy./Diag. 0.10E+00    5.3     0.05026512       -49.2404058484  6.33E-03
   140 Broy./Diag. 0.10E+00    5.3     0.05991091       -49.2322014737  8.20E-03
   141 Broy./Diag. 0.10E+00    5.3     0.04886084       -49.2307991529  1.40E-03
   142 Broy./Diag. 0.10E+00    5.4     0.03564638       -49.2339612451 -3.16E-03
   143 Broy./Diag. 0.10E+00    5.2     0.01142969       -49.2465068856 -1.25E-02
   144 Broy./Diag. 0.10E+00    5.3     0.01306813       -49.2441075476  2.40E-03
   145 Broy./Diag. 0.10E+00    5.3     0.02800851       -49.2424452289  1.66E-03
   146 Broy./Diag. 0.10E+00    5.3     0.03063992       -49.2423543693  9.09E-05
   147 Broy./Diag. 0.10E+00    5.3     0.03862502       -49.2404982243  1.86E-03
   148 Broy./Diag. 0.10E+00    5.3     0.04950622       -49.2473646925 -6.87E-03
   149 Broy./Diag. 0.10E+00    5.3     0.04737273       -49.2452059597  2.16E-03
   150 Broy./Diag. 0.10E+00    5.3     0.05868718       -49.2451785757  2.74E-05
   151 Broy./Diag. 0.10E+00    5.3     0.07040933       -49.2500635777 -4.89E-03
   152 Broy./Diag. 0.10E+00    5.3     0.06820268       -49.2532517203 -3.19E-03
   153 Broy./Diag. 0.10E+00    5.4     0.02507601       -49.2501025751  3.15E-03
   154 Broy./Diag. 0.10E+00    5.3     0.06944220       -49.2465140742  3.59E-03
   155 Broy./Diag. 0.10E+00    5.3     0.09275079       -49.2377954899  8.72E-03
   156 Broy./Diag. 0.10E+00    5.4     0.08172229       -49.2277351474  1.01E-02
   157 Broy./Diag. 0.10E+00    5.3     0.07867634       -49.2046201058  2.31E-02
   158 Broy./Diag. 0.10E+00    5.3     0.05696681       -49.1905192730  1.41E-02
   159 Broy./Diag. 0.10E+00    5.3     0.04081543       -49.1801331297  1.04E-02
   160 Broy./Diag. 0.10E+00    5.3     0.03251019       -49.1846352065 -4.50E-03
   161 Broy./Diag. 0.10E+00    5.4     0.05624554       -49.2045708310 -1.99E-02
   162 Broy./Diag. 0.10E+00    5.3     0.05187806       -49.2289830510 -2.44E-02
   163 Broy./Diag. 0.10E+00    5.3     0.03333369       -49.2453265242 -1.63E-02
   164 Broy./Diag. 0.10E+00    5.3     0.02890779       -49.2509973147 -5.67E-03
   165 Broy./Diag. 0.10E+00    5.3     0.03921970       -49.2541242553 -3.13E-03
   166 Broy./Diag. 0.10E+00    5.3     0.05320805       -49.2511633831  2.96E-03
   167 Broy./Diag. 0.10E+00    5.4     0.05488032       -49.2451158164  6.05E-03
   168 Broy./Diag. 0.10E+00    5.4     0.06749118       -49.2434436843  1.67E-03
   169 Broy./Diag. 0.10E+00    5.4     0.07108729       -49.2384848808  4.96E-03
   170 Broy./Diag. 0.10E+00    5.3     0.03045559       -49.2214702147  1.70E-02
   171 Broy./Diag. 0.10E+00    5.4     0.02747852       -49.2142853026  7.18E-03
   172 Broy./Diag. 0.10E+00    5.4     0.05323070       -49.2074544353  6.83E-03
   173 Broy./Diag. 0.10E+00    5.3     0.06834022       -49.2439739874 -3.65E-02
   174 Broy./Diag. 0.10E+00    5.3     0.06033582       -49.2879394492 -4.40E-02
   175 Broy./Diag. 0.10E+00    5.3     0.04104747       -49.3129363533 -2.50E-02
   176 Broy./Diag. 0.10E+00    5.3     0.13868659       -49.3341943754 -2.13E-02
   177 Broy./Diag. 0.10E+00    5.4     0.10565226       -49.3528763568 -1.87E-02
   178 Broy./Diag. 0.10E+00    5.3     0.08074907       -49.3420873176  1.08E-02
   179 Broy./Diag. 0.10E+00    5.3     0.06491712       -49.3273055684  1.48E-02
   180 Broy./Diag. 0.10E+00    5.4     0.05844892       -49.3635506208 -3.62E-02
   181 Broy./Diag. 0.10E+00    5.3     0.07186674       -49.3532445131  1.03E-02
   182 Broy./Diag. 0.10E+00    5.3     0.06473335       -49.3566368464 -3.39E-03
   183 Broy./Diag. 0.10E+00    5.3     0.04828639       -49.3707495069 -1.41E-02
   184 Broy./Diag. 0.10E+00    5.3     0.07185054       -49.2858080635  8.49E-02
   185 Broy./Diag. 0.10E+00    5.4     0.07387834       -49.2213839434  6.44E-02
   186 Broy./Diag. 0.10E+00    5.3     0.10601934       -49.1156093466  1.06E-01
   187 Broy./Diag. 0.10E+00    5.3     0.06980116       -49.1188279794 -3.22E-03
   188 Broy./Diag. 0.10E+00    5.4     0.14217781       -49.1802998712 -6.15E-02
   189 Broy./Diag. 0.10E+00    5.4     0.05420868       -49.2234222343 -4.31E-02
   190 Broy./Diag. 0.10E+00    5.4     0.06153673       -49.2366045923 -1.32E-02
   191 Broy./Diag. 0.10E+00    5.3     0.09668304       -49.2759508535 -3.93E-02
   192 Broy./Diag. 0.10E+00    5.4     0.07261483       -49.2764416078 -4.91E-04
   193 Broy./Diag. 0.10E+00    5.4     0.10043017       -49.2235799126  5.29E-02
   194 Broy./Diag. 0.10E+00    5.3     0.06751902       -49.1522083018  7.14E-02
   195 Broy./Diag. 0.10E+00    5.3     0.13163335       -49.0935037567  5.87E-02
   196 Broy./Diag. 0.10E+00    5.3     0.09893028       -49.0668182620  2.67E-02
   197 Broy./Diag. 0.10E+00    5.3     0.07218349       -49.0980377252 -3.12E-02
   198 Broy./Diag. 0.10E+00    5.3     0.06243908       -49.1009246428 -2.89E-03
   199 Broy./Diag. 0.10E+00    5.3     0.03052421       -49.1256692164 -2.47E-02
   200 Broy./Diag. 0.10E+00    5.3     0.02627111       -49.1381200229 -1.25E-02
   201 Broy./Diag. 0.10E+00    5.3     0.17966052       -49.1888233905 -5.07E-02
   202 Broy./Diag. 0.10E+00    5.3     0.10455711       -49.3091111294 -1.20E-01
   203 Broy./Diag. 0.10E+00    5.3     0.03424049       -49.3225652001 -1.35E-02
   204 Broy./Diag. 0.10E+00    5.3     0.06397341       -49.3079856897  1.46E-02
   205 Broy./Diag. 0.10E+00    5.3     0.05214417       -49.3084871383 -5.01E-04
   206 Broy./Diag. 0.10E+00    5.3     0.06088688       -49.2869025283  2.16E-02
   207 Broy./Diag. 0.10E+00    5.3     0.05509614       -49.2678828982  1.90E-02
   208 Broy./Diag. 0.10E+00    5.3     0.01743380       -49.2766949472 -8.81E-03
   209 Broy./Diag. 0.10E+00    5.5     0.01747033       -49.3069000976 -3.02E-02
   210 Broy./Diag. 0.10E+00    5.3     0.03663618       -49.3070719042 -1.72E-04
   211 Broy./Diag. 0.10E+00    5.3     0.05797976       -49.2445044529  6.26E-02
   212 Broy./Diag. 0.10E+00    5.3     0.02966661       -49.2201240020  2.44E-02
   213 Broy./Diag. 0.10E+00    5.4     0.01190457       -49.2438833881 -2.38E-02
   214 Broy./Diag. 0.10E+00    5.3     0.03822750       -49.2377929855  6.09E-03
   215 Broy./Diag. 0.10E+00    5.2     0.05026729       -49.2072904727  3.05E-02
   216 Broy./Diag. 0.10E+00    5.3     0.04433235       -49.1947276101  1.26E-02
   217 Broy./Diag. 0.10E+00    5.3     0.10353749       -49.2420751468 -4.73E-02
   218 Broy./Diag. 0.10E+00    5.3     0.04100467       -49.2605987633 -1.85E-02
   219 Broy./Diag. 0.10E+00    5.3     0.01995209       -49.2499589839  1.06E-02
   220 Broy./Diag. 0.10E+00    5.3     0.01088896       -49.2500815982 -1.23E-04
   221 Broy./Diag. 0.10E+00    5.2     0.02800225       -49.2455124078  4.57E-03
   222 Broy./Diag. 0.10E+00    5.3     0.02672500       -49.2400865676  5.43E-03
   223 Broy./Diag. 0.10E+00    5.3     0.01078459       -49.2421761778 -2.09E-03
   224 Broy./Diag. 0.10E+00    5.3     0.00864618       -49.2412070741  9.69E-04
   225 Broy./Diag. 0.10E+00    5.3     0.01345890       -49.2480015316 -6.79E-03
   226 Broy./Diag. 0.10E+00    5.3     0.00768040       -49.2550133414 -7.01E-03
   227 Broy./Diag. 0.10E+00    5.3     0.00775650       -49.2567056704 -1.69E-03
   228 Broy./Diag. 0.10E+00    5.3     0.00629802       -49.2552894285  1.42E-03
   229 Broy./Diag. 0.10E+00    5.3     0.00846811       -49.2597383324 -4.45E-03
   230 Broy./Diag. 0.10E+00    5.3     0.00771974       -49.2581913328  1.55E-03
   231 Broy./Diag. 0.10E+00    5.3     0.00244904       -49.2597350637 -1.54E-03
   232 Broy./Diag. 0.10E+00    5.3     0.02674601       -49.2670267873 -7.29E-03
   233 Broy./Diag. 0.10E+00    5.3     0.02074259       -49.2639047711  3.12E-03
   234 Broy./Diag. 0.10E+00    5.3     0.01020690       -49.2552907803  8.61E-03
   235 Broy./Diag. 0.10E+00    5.3     0.00900609       -49.2523604566  2.93E-03
   236 Broy./Diag. 0.10E+00    5.3     0.00775870       -49.2508955945  1.46E-03
   237 Broy./Diag. 0.10E+00    5.3     0.01152523       -49.2474656628  3.43E-03
   238 Broy./Diag. 0.10E+00    5.3     0.01630602       -49.2514380443 -3.97E-03
   239 Broy./Diag. 0.10E+00    5.3     0.02563091       -49.2452919476  6.15E-03
   240 Broy./Diag. 0.10E+00    5.3     0.04018104       -49.2444526715  8.39E-04
   241 Broy./Diag. 0.10E+00    5.3     0.06401873       -49.2496672393 -5.21E-03
   242 Broy./Diag. 0.10E+00    5.3     0.06740144       -49.2409524986  8.71E-03
   243 Broy./Diag. 0.10E+00    5.3     0.06962923       -49.2351534203  5.80E-03
   244 Broy./Diag. 0.10E+00    5.4     0.05111607       -49.2357011891 -5.48E-04
   245 Broy./Diag. 0.10E+00    5.3     0.05112247       -49.2321712740  3.53E-03
   246 Broy./Diag. 0.10E+00    5.3     0.05112657       -49.2321385068  3.28E-05
   247 Broy./Diag. 0.10E+00    5.3     0.04639242       -49.2443899100 -1.23E-02
   248 Broy./Diag. 0.10E+00    5.3     0.03647035       -49.2512652190 -6.88E-03
   249 Broy./Diag. 0.10E+00    5.3     0.02514069       -49.2532346984 -1.97E-03
   250 Broy./Diag. 0.10E+00    5.3     0.02403006       -49.2720226178 -1.88E-02
   251 Broy./Diag. 0.10E+00    5.3     0.02409485       -49.2737076627 -1.69E-03
   252 Broy./Diag. 0.10E+00    5.3     0.02459612       -49.2664201733  7.29E-03
   253 Broy./Diag. 0.10E+00    5.3     0.02054705       -49.2624113241  4.01E-03
   254 Broy./Diag. 0.10E+00    5.3     0.01632590       -49.2826825344 -2.03E-02
   255 Broy./Diag. 0.10E+00    5.3     0.02240060       -49.3006253041 -1.79E-02
   256 Broy./Diag. 0.10E+00    5.4     0.04695858       -49.3124273144 -1.18E-02
   257 Broy./Diag. 0.10E+00    5.4     0.02242998       -49.3396464740 -2.72E-02
   258 Broy./Diag. 0.10E+00    5.3     0.14293605       -49.4033008904 -6.37E-02
   259 Broy./Diag. 0.10E+00    5.3     0.07784821       -49.4466123935 -4.33E-02
   260 Broy./Diag. 0.10E+00    5.3     0.10601791       -49.3766073164  7.00E-02
   261 Broy./Diag. 0.10E+00    5.3     0.09154053       -49.3374227925  3.92E-02
   262 Broy./Diag. 0.10E+00    5.3     0.08877516       -49.3358125691  1.61E-03
   263 Broy./Diag. 0.10E+00    5.3     0.06086014       -49.3785426734 -4.27E-02
   264 Broy./Diag. 0.10E+00    5.3     0.03882166       -49.3767065139  1.84E-03
   265 Broy./Diag. 0.10E+00    5.3     0.05446356       -49.3343876949  4.23E-02
   266 Broy./Diag. 0.10E+00    5.3     0.02600137       -49.3157486954  1.86E-02
   267 Broy./Diag. 0.10E+00    5.3     0.00818776       -49.3094106593  6.34E-03
   268 Broy./Diag. 0.10E+00    5.3     0.00835790       -49.3103253217 -9.15E-04
   269 Broy./Diag. 0.10E+00    5.4     0.01941814       -49.3087397035  1.59E-03
   270 Broy./Diag. 0.10E+00    5.4     0.03342173       -49.3099505805 -1.21E-03
   271 Broy./Diag. 0.10E+00    5.3     0.04510202       -49.3094687511  4.82E-04
   272 Broy./Diag. 0.10E+00    5.3     0.05794790       -49.3115939022 -2.13E-03
   273 Broy./Diag. 0.10E+00    5.3     0.06470989       -49.3125804992 -9.87E-04
   274 Broy./Diag. 0.10E+00    5.3     0.06078614       -49.3173860484 -4.81E-03
   275 Broy./Diag. 0.10E+00    5.2     0.05674341       -49.3163266174  1.06E-03
   276 Broy./Diag. 0.10E+00    5.3     0.04421080       -49.3052614490  1.11E-02
   277 Broy./Diag. 0.10E+00    5.3     0.04353656       -49.2916223883  1.36E-02
   278 Broy./Diag. 0.10E+00    5.3     0.03666810       -49.2878437367  3.78E-03
   279 Broy./Diag. 0.10E+00    5.3     0.02929071       -49.2838985430  3.95E-03
   280 Broy./Diag. 0.10E+00    5.3     0.02187460       -49.2795802653  4.32E-03
   281 Broy./Diag. 0.10E+00    5.3     0.01947951       -49.2769785260  2.60E-03
   282 Broy./Diag. 0.10E+00    5.3     0.01421363       -49.2731175342  3.86E-03
   283 Broy./Diag. 0.10E+00    5.3     0.08721573       -49.3163964276 -4.33E-02
   284 Broy./Diag. 0.10E+00    5.3     0.07284950       -49.3243369569 -7.94E-03
   285 Broy./Diag. 0.10E+00    5.3     0.10424105       -49.2497478460  7.46E-02
   286 Broy./Diag. 0.10E+00    5.3     0.16263058       -49.1781535540  7.16E-02
   287 Broy./Diag. 0.10E+00    5.4     0.12608668       -49.1460667067  3.21E-02
   288 Broy./Diag. 0.10E+00    5.3     0.11237221       -49.2053719506 -5.93E-02
   289 Broy./Diag. 0.10E+00    5.3     0.18795971       -49.3514278393 -1.46E-01
   290 Broy./Diag. 0.10E+00    5.3     0.22501765       -49.5887012647 -2.37E-01
   291 Broy./Diag. 0.10E+00    5.3     0.18735662       -49.4882291248  1.00E-01
   292 Broy./Diag. 0.10E+00    5.3     0.05934707       -49.3719646590  1.16E-01
   293 Broy./Diag. 0.10E+00    5.3     0.03672904       -49.3123951507  5.96E-02
   294 Broy./Diag. 0.10E+00    5.3     0.10837327       -49.2407969911  7.16E-02
   295 Broy./Diag. 0.10E+00    5.3     0.06885768       -49.3832751972 -1.42E-01
   296 Broy./Diag. 0.10E+00    5.3     0.04702702       -49.3717657363  1.15E-02
   297 Broy./Diag. 0.10E+00    5.3     0.05200123       -49.3239172857  4.78E-02
   298 Broy./Diag. 0.10E+00    5.3     0.06380921       -49.2763063395  4.76E-02
   299 Broy./Diag. 0.10E+00    5.3     0.04556760       -49.2227681489  5.35E-02
   300 Broy./Diag. 0.10E+00    5.3     0.08989495       -49.1746070279  4.82E-02
   301 Broy./Diag. 0.10E+00    5.3     0.33948828       -49.1752719884 -6.65E-04
   302 Broy./Diag. 0.10E+00    5.3     0.10013982       -49.3930340198 -2.18E-01
   303 Broy./Diag. 0.10E+00    5.3     0.03677884       -49.4549459439 -6.19E-02
   304 Broy./Diag. 0.10E+00    5.3     0.01819241       -49.4220270691  3.29E-02
   305 Broy./Diag. 0.10E+00    5.3     0.10827095       -49.3420183989  8.00E-02
   306 Broy./Diag. 0.10E+00    5.3     0.05348939       -49.3170240565  2.50E-02
   307 Broy./Diag. 0.10E+00    5.2     0.02544478       -49.2893162729  2.77E-02
   308 Broy./Diag. 0.10E+00    5.3     0.08547205       -49.2740766791  1.52E-02
   309 Broy./Diag. 0.10E+00    5.3     0.05028200       -49.2402144637  3.39E-02
   310 Broy./Diag. 0.10E+00    5.3     0.02116128       -49.2189411624  2.13E-02
   311 Broy./Diag. 0.10E+00    5.3     0.01821300       -49.2173904970  1.55E-03
   312 Broy./Diag. 0.10E+00    5.3     0.03102269       -49.2174594998 -6.90E-05
   313 Broy./Diag. 0.10E+00    5.3     0.03699784       -49.1739940933  4.35E-02
   314 Broy./Diag. 0.10E+00    5.3     0.00915879       -49.1959759255 -2.20E-02
   315 Broy./Diag. 0.10E+00    5.3     0.05281675       -49.1918112742  4.16E-03
   316 Broy./Diag. 0.10E+00    5.3     0.11631130       -49.1719250556  1.99E-02
   317 Broy./Diag. 0.10E+00    5.3     0.07632344       -49.2167021141 -4.48E-02
   318 Broy./Diag. 0.10E+00    5.3     0.03454425       -49.2580795673 -4.14E-02
   319 Broy./Diag. 0.10E+00    5.3     0.03734399       -49.2874195697 -2.93E-02
   320 Broy./Diag. 0.10E+00    5.3     0.04465813       -49.2717581043  1.57E-02
   321 Broy./Diag. 0.10E+00    5.4     0.03175828       -49.2633321761  8.43E-03
   322 Broy./Diag. 0.10E+00    5.3     0.01160545       -49.2681269385 -4.79E-03
   323 Broy./Diag. 0.10E+00    5.3     0.00566150       -49.2700722076 -1.95E-03
   324 Broy./Diag. 0.10E+00    5.3     0.00722001       -49.2702152240 -1.43E-04
   325 Broy./Diag. 0.10E+00    5.3     0.00660433       -49.2708850383 -6.70E-04
   326 Broy./Diag. 0.10E+00    5.4     0.02183969       -49.2754210615 -4.54E-03
   327 Broy./Diag. 0.10E+00    5.3     0.02239892       -49.2762776369 -8.57E-04
   328 Broy./Diag. 0.10E+00    5.3     0.01725243       -49.2752661888  1.01E-03
   329 Broy./Diag. 0.10E+00    5.3     0.01908132       -49.2750460736  2.20E-04
   330 Broy./Diag. 0.10E+00    5.3     0.01852349       -49.2763921197 -1.35E-03
   331 Broy./Diag. 0.10E+00    5.3     0.02564342       -49.2730970619  3.30E-03
   332 Broy./Diag. 0.10E+00    5.3     0.02701264       -49.2734830654 -3.86E-04
   333 Broy./Diag. 0.10E+00    5.4     0.03383856       -49.2778421973 -4.36E-03
   334 Broy./Diag. 0.10E+00    5.3     0.04735332       -49.2821488118 -4.31E-03
   335 Broy./Diag. 0.10E+00    5.3     0.05411007       -49.2790992832  3.05E-03
   336 Broy./Diag. 0.10E+00    5.3     0.04558447       -49.2572449687  2.19E-02
   337 Broy./Diag. 0.10E+00    5.3     0.04682368       -49.2553776503  1.87E-03
   338 Broy./Diag. 0.10E+00    5.3     0.05113563       -49.2465241355  8.85E-03
   339 Broy./Diag. 0.10E+00    5.4     0.05932974       -49.2440115024  2.51E-03
   340 Broy./Diag. 0.10E+00    5.3     0.06723243       -49.2501473073 -6.14E-03
   341 Broy./Diag. 0.10E+00    5.3     0.04834892       -49.2628910201 -1.27E-02
   342 Broy./Diag. 0.10E+00    5.3     0.04772939       -49.2726376870 -9.75E-03
   343 Broy./Diag. 0.10E+00    5.3     0.03587261       -49.2693292637  3.31E-03
   344 Broy./Diag. 0.10E+00    5.4     0.03484209       -49.2649936415  4.34E-03
   345 Broy./Diag. 0.10E+00    5.3     0.04764410       -49.2345120560  3.05E-02
   346 Broy./Diag. 0.10E+00    5.3     0.04869080       -49.2512409846 -1.67E-02
   347 Broy./Diag. 0.10E+00    5.2     0.13360953       -49.2796669028 -2.84E-02
   348 Broy./Diag. 0.10E+00    5.2     0.23757371       -49.2849207875 -5.25E-03
   349 Broy./Diag. 0.10E+00    5.3     0.11352972       -49.1850857157  9.98E-02
   350 Broy./Diag. 0.10E+00    5.4     0.21793286       -49.2357828409 -5.07E-02
   351 Broy./Diag. 0.10E+00    5.3     0.16765598       -49.2566113043 -2.08E-02
   352 Broy./Diag. 0.10E+00    5.3     0.07183170       -49.2191773564  3.74E-02
   353 Broy./Diag. 0.10E+00    5.4     0.07118099       -49.2045818420  1.46E-02
[...]
   418 Broy./Diag. 0.10E+00    5.4     0.11472851       -49.2074481423 -2.08E-02
   419 Broy./Diag. 0.10E+00    5.3     0.07070528       -49.1660907251  4.14E-02
   420 Broy./Diag. 0.10E+00    5.3     0.03631758       -49.1297922565  3.63E-02
   421 Broy./Diag. 0.10E+00    5.3     0.02686360       -49.1097677997  2.00E-02
   422 Broy./Diag. 0.10E+00    5.3     0.08356204       -49.0988602642  1.09E-02
   423 Broy./Diag. 0.10E+00    5.3     0.10152865       -49.1186581198 -1.98E-02
   424 Broy./Diag. 0.10E+00    5.4     0.08298829       -49.1568330722 -3.82E-02
   425 Broy./Diag. 0.10E+00    5.4     0.20540059       -49.2021188238 -4.53E-02
   426 Broy./Diag. 0.10E+00    5.3     0.10878511       -49.2303507865 -2.82E-02
   427 Broy./Diag. 0.10E+00    5.3     0.08504049       -49.2175179911  1.28E-02
   428 Broy./Diag. 0.10E+00    5.3     0.04607525       -49.2687721345 -5.13E-02
   429 Broy./Diag. 0.10E+00    5.4     0.04119799       -49.2785507938 -9.78E-03
   430 Broy./Diag. 0.10E+00    5.3     0.05001272       -49.2627761742  1.58E-02
   431 Broy./Diag. 0.10E+00    5.3     0.03534142       -49.2444017874  1.84E-02
   432 Broy./Diag. 0.10E+00    5.5     0.01457067       -49.2348196654  9.58E-03
   433 Broy./Diag. 0.10E+00    5.4     0.00834572       -49.2307095335  4.11E-03
   434 Broy./Diag. 0.10E+00    5.3     0.04573567       -49.2256169765  5.09E-03
   435 Broy./Diag. 0.10E+00    5.3     0.03184359       -49.2035287780  2.21E-02
   436 Broy./Diag. 0.10E+00    5.3     0.05336497       -49.2152380860 -1.17E-02
   437 Broy./Diag. 0.10E+00    5.4     0.04006627       -49.2323007508 -1.71E-02
   438 Broy./Diag. 0.10E+00    5.3     0.03504490       -49.2298576831  2.44E-03
   439 Broy./Diag. 0.10E+00    5.3     0.04303537       -49.2108616841  1.90E-02
   440 Broy./Diag. 0.10E+00    5.3     0.11487299       -49.2048671220  5.99E-03
   441 Broy./Diag. 0.10E+00    5.4     0.09432732       -49.2565960626 -5.17E-02
   442 Broy./Diag. 0.10E+00    5.3     0.03801906       -49.2759267302 -1.93E-02
   443 Broy./Diag. 0.10E+00    5.4     0.05281713       -49.2697461225  6.18E-03
   444 Broy./Diag. 0.10E+00    5.3     0.05105756       -49.2596248976  1.01E-02
   445 Broy./Diag. 0.10E+00    5.3     0.04449104       -49.2459993121  1.36E-02
   446 Broy./Diag. 0.10E+00    5.3     0.06274778       -49.2358195333  1.02E-02
   447 Broy./Diag. 0.10E+00    5.3     0.07520868       -49.2272301672  8.59E-03
   448 Broy./Diag. 0.10E+00    5.3     0.07035023       -49.2211199253  6.11E-03
   449 Broy./Diag. 0.10E+00    5.5     0.06894186       -49.2042773176  1.68E-02
   450 Broy./Diag. 0.10E+00    5.3     0.04869356       -49.1914271426  1.29E-02
   451 Broy./Diag. 0.10E+00    5.3     0.05017496       -49.2068771683 -1.55E-02
   452 Broy./Diag. 0.10E+00    5.3     0.01964356       -49.2167991715 -9.92E-03
   453 Broy./Diag. 0.10E+00    5.3     0.05116313       -49.2249361002 -8.14E-03
   454 Broy./Diag. 0.10E+00    5.3     0.07721351       -49.2299088629 -4.97E-03
   455 Broy./Diag. 0.10E+00    5.3     0.02732977       -49.2516221976 -2.17E-02
   456 Broy./Diag. 0.10E+00    5.4     0.08400283       -49.2400155773  1.16E-02
   457 Broy./Diag. 0.10E+00    5.4     0.07971646       -49.1945835061  4.54E-02
   458 Broy./Diag. 0.10E+00    5.4     0.02923976       -49.1454218958  4.92E-02
   459 Broy./Diag. 0.10E+00    5.3     0.28031735       -49.1862171264 -4.08E-02
   460 Broy./Diag. 0.10E+00    5.3     0.06609177       -49.2118180974 -2.56E-02
   461 Broy./Diag. 0.10E+00    5.3     0.19880711       -49.2014406392  1.04E-02
   462 Broy./Diag. 0.10E+00    5.3     0.04688393       -49.1959819177  5.46E-03
   463 Broy./Diag. 0.10E+00    5.4     0.11396057       -49.1921324561  3.85E-03
   464 Broy./Diag. 0.10E+00    5.3     0.09907386       -49.1384623979  5.37E-02
   465 Broy./Diag. 0.10E+00    5.4     0.09798953       -49.1611011231 -2.26E-02
   466 Broy./Diag. 0.10E+00    5.3     0.09543796       -49.1838472861 -2.27E-02
   467 Broy./Diag. 0.10E+00    5.4     0.12737289       -49.2109322218 -2.71E-02
   468 Broy./Diag. 0.10E+00    5.3     0.10002473       -49.2762146483 -6.53E-02
   469 Broy./Diag. 0.10E+00    5.3     0.09141098       -49.2930027789 -1.68E-02
   470 Broy./Diag. 0.10E+00    5.3     0.08913545       -49.2985519799 -5.55E-03
   471 Broy./Diag. 0.10E+00    5.3     0.02609503       -49.2860429791  1.25E-02
   472 Broy./Diag. 0.10E+00    5.3     0.01182304       -49.2936969710 -7.65E-03
   473 Broy./Diag. 0.10E+00    5.4     0.02343030       -49.2881713652  5.53E-03
   474 Broy./Diag. 0.10E+00    5.3     0.04363336       -49.2741851141  1.40E-02
   475 Broy./Diag. 0.10E+00    5.3     0.05693194       -49.2767006485 -2.52E-03
   476 Broy./Diag. 0.10E+00    5.3     0.03931426       -49.2748077848  1.89E-03
   477 Broy./Diag. 0.10E+00    5.3     0.06770708       -49.2726057328  2.20E-03
   478 Broy./Diag. 0.10E+00    5.3     0.06208168       -49.2856787360 -1.31E-02
   479 Broy./Diag. 0.10E+00    5.3     0.05645939       -49.2971652839 -1.15E-02
   480 Broy./Diag. 0.10E+00    5.3     0.05156638       -49.3043268472 -7.16E-03
   481 Broy./Diag. 0.10E+00    5.4     0.06007025       -49.3126870774 -8.36E-03
   482 Broy./Diag. 0.10E+00    5.3     0.06063451       -49.3282307659 -1.55E-02
   483 Broy./Diag. 0.10E+00    5.3     0.11602546       -49.3134802245  1.48E-02
   484 Broy./Diag. 0.10E+00    5.3     0.03571738       -49.2687256469  4.48E-02
   485 Broy./Diag. 0.10E+00    5.4     0.10131015       -49.2588398915  9.89E-03
   486 Broy./Diag. 0.10E+00    5.3     0.04982999       -49.2904947872 -3.17E-02
   487 Broy./Diag. 0.10E+00    5.3     0.13133120       -49.2819850923  8.51E-03
   488 Broy./Diag. 0.10E+00    5.3     0.07408810       -49.2830738717 -1.09E-03
   489 Broy./Diag. 0.10E+00    5.3     0.03325682       -49.2811890340  1.88E-03
   490 Broy./Diag. 0.10E+00    5.4     0.04697089       -49.2776958282  3.49E-03
   491 Broy./Diag. 0.10E+00    5.3     0.08041436       -49.2422905653  3.54E-02
   492 Broy./Diag. 0.10E+00    5.3     0.08421083       -49.2584384383 -1.61E-02
   493 Broy./Diag. 0.10E+00    5.4     0.08743267       -49.2666207272 -8.18E-03
   494 Broy./Diag. 0.10E+00    5.3     0.06628523       -49.2772442371 -1.06E-02
   495 Broy./Diag. 0.10E+00    5.3     0.06778580       -49.2702465410  7.00E-03
   496 Broy./Diag. 0.10E+00    5.3     0.03022789       -49.2432207602  2.70E-02
   497 Broy./Diag. 0.10E+00    5.4     0.03423377       -49.2282419134  1.50E-02
   498 Broy./Diag. 0.10E+00    5.3     0.05310981       -49.2325161441 -4.27E-03
   499 Broy./Diag. 0.10E+00    5.3     0.06335759       -49.2285648259  3.95E-03
   500 Broy./Diag. 0.10E+00    5.3     0.09838710       -49.2163271853  1.22E-02

  Leaving inner SCF loop after reaching   500 steps.


  Electronic density on regular grids:         -7.1516076702        2.8483923298
  Core density on regular grids:               10.0000000000        0.0000000000
  Hard and soft densities (Lebedev):          -13.6244418365      -10.7517219828
  Total Rho_soft + Rho1_hard - Rho1_soft      -10.0243275239
  Total charge density (r-space):              -0.0243275239
  Total Rho_soft + Rho0_soft (g-space):        -0.0243275846

  Overlap energy of the core charge distribution:               0.00000845868521
  Self energy of the core charge distribution:                -32.50467561761386
  Core Hamiltonian energy:                                    -13.36696494064573
  Hartree energy:                                              11.43136667065331
  Exchange-correlation energy:                                 -2.06095729114572
  Hartree-Fock Exchange energy:                                -1.88379667859710

  GAPW| Exc from hard and soft atomic rho1:                    -3.87385514941705
  GAPW| local Eh = 1 center integrals:                         -6.95745263719491

  Total energy:                                               -49.21632718527584

 *******************************************************************************
 *   ___                                                                       *
 *  /   \                                                                      *
 * [ABORT]                                                                     *
 *  \___/     SCF run NOT converged. To continue the calculation regardless,   *
 *    |             please set the keyword IGNORE_CONVERGENCE_FAILURE.         *
 *  O/|                                                                        *
 * /| |                                                                        *
 * / \                                                            qs_scf.F:611 *
 *******************************************************************************


 ===== Routine Calling Stack ===== 

            3 scf_env_do_scf
            2 qs_energies
            1 CP2K

 *******************************************************************************
 *   ___                                                                       *
 *  /   \                                                                      *
 * [ABORT]                                                                     *
 *  \___/     SCF run NOT converged. To continue the calculation regardless,   *
 *    |             please set the keyword IGNORE_CONVERGENCE_FAILURE.         *
 *  O/|                                                                        *
 * /| |                                                                        *
 * / \                                                            qs_scf.F:611 *
 *******************************************************************************


 ===== Routine Calling Stack ===== 

            3 scf_env_do_scf
            2 qs_energies
            1 CP2K

 *******************************************************************************
 *   ___                                                                       *
 *  /   \                                                                      *
 * [ABORT]                                                                     *
 *  \___/     SCF run NOT converged. To continue the calculation regardless,   *
 *    |             please set the keyword IGNORE_CONVERGENCE_FAILURE.         *
 *  O/|                                                                        *
 * /| |                                                                        *
 * / \                                                            qs_scf.F:611 *
 *******************************************************************************


 ===== Routine Calling Stack ===== 

            3 scf_env_do_scf
            2 qs_energies
            1 CP2K

 *******************************************************************************
 *   ___                                                                       *
 *  /   \                                                                      *
 * [ABORT]                                                                     *
 *  \___/     SCF run NOT converged. To continue the calculation regardless,   *
 *    |             please set the keyword IGNORE_CONVERGENCE_FAILURE.         *
 *  O/|                                                                        *
 * /| |                                                                        *
 * / \                                                            qs_scf.F:611 *
 *******************************************************************************


 ===== Routine Calling Stack ===== 

            3 scf_env_do_scf
            2 qs_energies
            1 CP2K

 *******************************************************************************
 *   ___                                                                       *
 *  /   \                                                                      *
 * [ABORT]                                                                     *
 *  \___/     SCF run NOT converged. To continue the calculation regardless,   *
 *    |             please set the keyword IGNORE_CONVERGENCE_FAILURE.         *
 *  O/|                                                                        *
 * /| |                                                                        *
 * / \                                                            qs_scf.F:611 *
 *******************************************************************************


 ===== Routine Calling Stack ===== 

            3 scf_env_do_scf
            2 qs_energies
            1 CP2K

 *******************************************************************************
 *   ___                                                                       *
 *  /   \                                                                      *
 * [ABORT]                                                                     *
 *  \___/     SCF run NOT converged. To continue the calculation regardless,   *
 *    |             please set the keyword IGNORE_CONVERGENCE_FAILURE.         *
 *  O/|                                                                        *
 * /| |                                                                        *
 * / \                                                            qs_scf.F:611 *
 *******************************************************************************


 ===== Routine Calling Stack ===== 

            3 scf_env_do_scf
            2 qs_energies
            1 CP2K

 *******************************************************************************
 *   ___                                                                       *
 *  /   \                                                                      *
 * [ABORT]                                                                     *
 *  \___/     SCF run NOT converged. To continue the calculation regardless,   *
 *    |             please set the keyword IGNORE_CONVERGENCE_FAILURE.         *
 *  O/|                                                                        *
 * /| |                                                                        *
 * / \                                                            qs_scf.F:611 *
 *******************************************************************************


 ===== Routine Calling Stack ===== 

            3 scf_env_do_scf
            2 qs_energies
            1 CP2K

 *******************************************************************************
 *   ___                                                                       *
 *  /   \                                                                      *
 * [ABORT]                                                                     *
 *  \___/     SCF run NOT converged. To continue the calculation regardless,   *
 *    |             please set the keyword IGNORE_CONVERGENCE_FAILURE.         *
 *  O/|                                                                        *
 * /| |                                                                        *
 * / \                                                            qs_scf.F:611 *
 *******************************************************************************


 ===== Routine Calling Stack ===== 

            3 scf_env_do_scf
            2 qs_energies
            1 CP2K

 *******************************************************************************
 *   ___                                                                       *
 *  /   \                                                                      *
 * [ABORT]                                                                     *
 *  \___/     SCF run NOT converged. To continue the calculation regardless,   *
 *    |             please set the keyword IGNORE_CONVERGENCE_FAILURE.         *
 *  O/|                                                                        *
 * /| |                                                                        *
 * / \                                                            qs_scf.F:611 *
 *******************************************************************************


 ===== Routine Calling Stack ===== 

            3 scf_env_do_scf
            2 qs_energies
            1 CP2K

 *******************************************************************************
 *   ___                                                                       *
 *  /   \                                                                      *
 * [ABORT]                                                                     *
 *  \___/     SCF run NOT converged. To continue the calculation regardless,   *
 *    |             please set the keyword IGNORE_CONVERGENCE_FAILURE.         *
 *  O/|                                                                        *
 * /| |                                                                        *
 * / \                                                            qs_scf.F:611 *
 *******************************************************************************


 ===== Routine Calling Stack ===== 

            3 scf_env_do_scf
            2 qs_energies
            1 CP2K

 *******************************************************************************
 *   ___                                                                       *
 *  /   \                                                                      *
 * [ABORT]                                                                     *
 *  \___/     SCF run NOT converged. To continue the calculation regardless,   *
 *    |             please set the keyword IGNORE_CONVERGENCE_FAILURE.         *
 *  O/|                                                                        *
 * /| |                                                                        *
 * / \                                                            qs_scf.F:611 *
 *******************************************************************************


 ===== Routine Calling Stack ===== 

            3 scf_env_do_scf
            2 qs_energies
            1 CP2K

 *******************************************************************************
 *   ___                                                                       *
 *  /   \                                                                      *
 * [ABORT]                                                                     *
 *  \___/     SCF run NOT converged. To continue the calculation regardless,   *
 *    |             please set the keyword IGNORE_CONVERGENCE_FAILURE.         *
 *  O/|                                                                        *
 * /| |                                                                        *
 * / \                                                            qs_scf.F:611 *
 *******************************************************************************


 ===== Routine Calling Stack ===== 

            3 scf_env_do_scf
            2 qs_energies
            1 CP2K

 *******************************************************************************
 *   ___                                                                       *
 *  /   \                                                                      *
 * [ABORT]                                                                     *
 *  \___/     SCF run NOT converged. To continue the calculation regardless,   *
 *    |             please set the keyword IGNORE_CONVERGENCE_FAILURE.         *
 *  O/|                                                                        *
 * /| |                                                                        *
 * / \                                                            qs_scf.F:611 *
 *******************************************************************************


 ===== Routine Calling Stack ===== 

            3 scf_env_do_scf
            2 qs_energies
            1 CP2K
