 DBCSR| CPU Multiplication driver                                           BLAS (U)
 DBCSR| Multrec recursion limit                                              512 (U)
 DBCSR| Multiplication stack size                                           1000 (D)
 DBCSR| Maximum elements for images                                    UNLIMITED (U)
 DBCSR| Multiplicative factor virtual images                                   1 (U)
 DBCSR| Use multiplication densification                                       T (D)
 DBCSR| Multiplication size stacks                                             3 (U)
 DBCSR| Use memory pool for CPU allocation                                     F (U)
 DBCSR| Number of 3D layers                                               SINGLE (U)
 DBCSR| Use MPI memory allocation                                              F (U)
 DBCSR| Use RMA algorithm                                                      F (U)
 DBCSR| Use Communication thread                                               T (U)
 DBCSR| Communication thread load                                             75 (D)
 DBCSR| MPI: My process id                                                     0
 DBCSR| MPI: Number of processes                                              48
 DBCSR| OMP: Current number of threads                                         4
 DBCSR| OMP: Max number of threads                                             4
 DBCSR| Split modifier for TAS multiplication algorithm                  1.0E+00 (U)


  **** **** ******  **  PROGRAM STARTED AT               2025-03-26 05:44:45.861
 ***** ** ***  *** **   PROGRAM STARTED ON                          i05r11c01s07
 **    ****   ******    PROGRAM STARTED BY                               di38fab
 ***** **    ** ** **   PROGRAM PROCESS ID                               3266507
  **** **  *******  **  PROGRAM STARTED IN /hppfs/scratch/04/di38fab/05_MOL/W4-1
                                           1+ALK/h2/TZVP/GW+BSE/1e-4

 CP2K| version string:                 CP2K version 2025.1 (Development Version)
 CP2K| source code revision number:                                  git:d2e611a
 CP2K| cp2kflags: omp libint fftw3 libxc parallel scalapack max_contr=4         
 CP2K| is freely available from                            https://www.cp2k.org/
 CP2K| Program compiled at                       Thu 06 Mar 2025 05:09:20 PM CET
 CP2K| Program compiled on                                               login02
 CP2K| Program compiled for                                        Supermuc-foss
 CP2K| Data directory path                  /hppfs/work/pn36zo/di38fab/cp2k/data
 CP2K| Input file name                                                    GW.inp

 GLOBAL| Force Environment number                                              1
 GLOBAL| Basis set file name            /hppfs/scratch/04/di38fab/04_TMD/BASIS_A
 GLOBAL| Potential file name            /hppfs/work/pn36zo/di38fab/cp2k/data/ALL
 GLOBAL| MM Potential file name                                     MM_POTENTIAL
 GLOBAL| Coordinate file name                                      __STD_INPUT__
 GLOBAL| Method name                                                        CP2K
 GLOBAL| Project name                                                       MoS2
 GLOBAL| Run type                                                         ENERGY
 GLOBAL| FFT library                                                       FFTW3
 GLOBAL| Diagonalization library                                       ScaLAPACK
 GLOBAL| DGEMM library                                                      BLAS
 GLOBAL| Orthonormality check for eigenvectors                          DISABLED
 GLOBAL| Matrix multiplication library                                 ScaLAPACK
 GLOBAL| All-to-all communication in single precision                          F
 GLOBAL| FFTs using library dependent lengths                                  F
 GLOBAL| Grid backend                                                       AUTO
 GLOBAL| Global print level                                               MEDIUM
 GLOBAL| MPI I/O enabled                                                       T
 GLOBAL| Total number of message passing processes                            48
 GLOBAL| Number of threads for this process                                    4
 GLOBAL| This output is from process                                           0
 GLOBAL| OpenMP stack size per thread (OMP_STACKSIZE)                    default
 GLOBAL| CPU model name             Intel(R) Xeon(R) Platinum 8174 CPU @ 3.10GHz

 MEMORY| system memory details [Kb]
 MEMORY|                        rank 0           min           max       average
 MEMORY| MemTotal             98436664      98436660      98436664      98436663
 MEMORY| MemFree              83861332      83861332      84180264      84062161
 MEMORY| Buffers                     0             0             0             0
 MEMORY| Cached                2416452       2372404       2416452       2396156
 MEMORY| Slab                  1234516       1212608       1237008       1225986
 MEMORY| SReclaimable           279756        275080        283324        279567
 MEMORY| MemLikelyFree        86557540      86557540      86849580      86737884


 *** Fundamental physical constants (SI units) ***

 *** Literature: B. J. Mohr and B. N. Taylor,
 ***             CODATA recommended values of the fundamental physical
 ***             constants: 2006, Web Version 5.1
 ***             http://physics.nist.gov/constants

 Speed of light in vacuum [m/s]                             2.99792458000000E+08
 Magnetic constant or permeability of vacuum [N/A**2]       1.25663706143592E-06
 Electric constant or permittivity of vacuum [F/m]          8.85418781762039E-12
 Planck constant (h) [J*s]                                  6.62606896000000E-34
 Planck constant (h-bar) [J*s]                              1.05457162825177E-34
 Elementary charge [C]                                      1.60217648700000E-19
 Electron mass [kg]                                         9.10938215000000E-31
 Electron g factor [ ]                                     -2.00231930436220E+00
 Proton mass [kg]                                           1.67262163700000E-27
 Fine-structure constant                                    7.29735253760000E-03
 Rydberg constant [1/m]                                     1.09737315685270E+07
 Avogadro constant [1/mol]                                  6.02214179000000E+23
 Boltzmann constant [J/K]                                   1.38065040000000E-23
 Atomic mass unit [kg]                                      1.66053878200000E-27
 Bohr radius [m]                                            5.29177208590000E-11

 *** Conversion factors ***

 [u] -> [a.u.]                                              1.82288848426455E+03
 [Angstrom] -> [Bohr] = [a.u.]                              1.88972613288564E+00
 [a.u.] = [Bohr] -> [Angstrom]                              5.29177208590000E-01
 [a.u.] -> [s]                                              2.41888432650478E-17
 [a.u.] -> [fs]                                             2.41888432650478E-02
 [a.u.] -> [J]                                              4.35974393937059E-18
 [a.u.] -> [N]                                              8.23872205491840E-08
 [a.u.] -> [K]                                              3.15774647902944E+05
 [a.u.] -> [kJ/mol]                                         2.62549961709828E+03
 [a.u.] -> [kcal/mol]                                       6.27509468713739E+02
 [a.u.] -> [Pa]                                             2.94210107994716E+13
 [a.u.] -> [bar]                                            2.94210107994716E+08
 [a.u.] -> [atm]                                            2.90362800883016E+08
 [a.u.] -> [eV]                                             2.72113838565563E+01
 [a.u.] -> [Hz]                                             6.57968392072181E+15
 [a.u.] -> [1/cm] (wave numbers)                            2.19474631370540E+05
 [a.u./Bohr**2] -> [1/cm]                                   5.14048714338585E+03
 

 CELL_TOP| Volume [angstrom^3]:                                     27000.000000
 CELL_TOP| Vector a [angstrom    30.000     0.000     0.000   |a| =    30.000000
 CELL_TOP| Vector b [angstrom     0.000    30.000     0.000   |b| =    30.000000
 CELL_TOP| Vector c [angstrom     0.000     0.000    30.000   |c| =    30.000000
 CELL_TOP| Angle (b,c), alpha [degree]:                                90.000000
 CELL_TOP| Angle (a,c), beta  [degree]:                                90.000000
 CELL_TOP| Angle (a,b), gamma [degree]:                                90.000000
 CELL_TOP| Numerically orthorhombic:                                         YES
 CELL_TOP| Periodicity                                                      NONE

 GENERATE|  Preliminary Number of Bonds generated:                             0
 GENERATE|  Achieved consistency in connectivity generation.

 CELL| Volume [angstrom^3]:                                         27000.000000
 CELL| Vector a [angstrom]:      30.000     0.000     0.000   |a| =    30.000000
 CELL| Vector b [angstrom]:       0.000    30.000     0.000   |b| =    30.000000
 CELL| Vector c [angstrom]:       0.000     0.000    30.000   |c| =    30.000000
 CELL| Angle (b,c), alpha [degree]:                                    90.000000
 CELL| Angle (a,c), beta  [degree]:                                    90.000000
 CELL| Angle (a,b), gamma [degree]:                                    90.000000
 CELL| Numerically orthorhombic:                                             YES
 CELL| Periodicity                                                          NONE

 CELL_REF| Volume [angstrom^3]:                                     27000.000000
 CELL_REF| Vector a [angstrom    30.000     0.000     0.000   |a| =    30.000000
 CELL_REF| Vector b [angstrom     0.000    30.000     0.000   |b| =    30.000000
 CELL_REF| Vector c [angstrom     0.000     0.000    30.000   |c| =    30.000000
 CELL_REF| Angle (b,c), alpha [degree]:                                90.000000
 CELL_REF| Angle (a,c), beta  [degree]:                                90.000000
 CELL_REF| Angle (a,b), gamma [degree]:                                90.000000
 CELL_REF| Numerically orthorhombic:                                         YES
 CELL_REF| Periodicity                                                      NONE

 *******************************************************************************
 *******************************************************************************
 **                                                                           **
 **     #####                         ##              ##                      **
 **    ##   ##            ##          ##              ##                      **
 **   ##     ##                       ##            ######                    **
 **   ##     ##  ##   ##  ##   #####  ##  ##   ####   ##    #####    #####    **
 **   ##     ##  ##   ##  ##  ##      ## ##   ##      ##   ##   ##  ##   ##   **
 **   ##  ## ##  ##   ##  ##  ##      ####     ###    ##   ######   ######    **
 **    ##  ###   ##   ##  ##  ##      ## ##      ##   ##   ##       ##        **
 **     #######   #####   ##   #####  ##  ##  ####    ##    #####   ##        **
 **           ##                                                    ##        **
 **                                                                           **
 **                                                ... make the atoms dance   **
 **                                                                           **
 **            Copyright (C) by CP2K developers group (2000-2025)             **
 **                      J. Chem. Phys. 152, 194103 (2020)                    **
 **                                                                           **
 *******************************************************************************

 DFT| Spin restricted Kohn-Sham (RKS) calculation                            RKS
 DFT| Multiplicity                                                             1
 DFT| Number of spin states                                                    1
 DFT| Charge                                                                   0
 DFT| Self-interaction correction (SIC)                                       NO
 DFT| Cutoffs: density                                              1.000000E-10
 DFT|          gradient                                             1.000000E-10
 DFT|          tau                                                  1.000000E-10
 DFT|          cutoff_smoothing_range                               0.000000E+00
 DFT| XC density smoothing                                                  NONE
 DFT| XC derivatives                                                          PW

 FUNCTIONAL| PBE:
 FUNCTIONAL| J.P.Perdew, K.Burke, M.Ernzerhof, Phys. Rev. Letter, vol. 77, n 18,
 FUNCTIONAL|  pp. 3865-3868, (1996)sx=0.750sc=1.000{spin unpolarized}           


 QS| Method:                                                                GAPW
 QS| Density plane wave grid type                        NON-SPHERICAL FULLSPACE
 QS| Number of grid levels:                                                    4
 QS| Density cutoff [a.u.]:                                                250.0
 QS| Multi grid cutoff [a.u.]: 1) grid level                               250.0
 QS|                           2) grid level                                83.3
 QS|                           3) grid level                                27.8
 QS|                           4) grid level                                 9.3
 QS| Grid level progression factor:                                          3.0
 QS| Relative density cutoff [a.u.]:                                        50.0
 QS| Interaction thresholds: eps_pgf_orb:                                1.0E-12
 QS|                         eps_filter_matrix:                          0.0E+00
 QS|                         eps_core_charge:                            1.0E-14
 QS|                         eps_rho_gspace:                             1.0E-12
 QS|                         eps_rho_rspace:                             1.0E-12
 QS|                         eps_gvg_rspace:                             1.0E-06
 QS|                         eps_ppl:                                    1.0E-02
 QS|                         eps_ppnl:                                   1.0E-08
 QS| GAPW|      One center basis from orbital basis primitives
 QS| GAPW|                   eps_fit:                                    1.0E-04
 QS| GAPW|                   eps_iso:                                    1.0E-12
 QS| GAPW|                   eps_svd:                                    1.0E-08
 QS| GAPW|                   eps_cpc:                                    1.0E-12
 QS| GAPW|   atom-r-grid: quadrature:                                     GC_LOG
 QS| GAPW|      atom-s-grid:  max l :                                          4
 QS| GAPW|      max_l_rho0 :                                                   2


 ATOMIC KIND INFORMATION

  1. Atomic kind: H                                     Number of atoms:       2

     Orbital Basis Set                                        aug-TZVP-MOLOPT-ae

       Number of orbital shell sets:                                           1
       Number of orbital shells:                                               9
       Number of primitive Cartesian functions:                                6
       Number of Cartesian basis functions:                                   25
       Number of spherical basis functions:                                   23
       Norm type:                                                              2

       Normalised Cartesian orbitals:

                        Set   Shell   Orbital            Exponent    Coefficient

                          1       1    1s                0.030000       0.000000
                                                         0.091371      -0.049397
                                                         0.293823      -0.051765
                                                         1.065127       0.831136
                                                         4.947701      -0.270539
                                                        34.177738      -6.423540

                          1       2    2s                0.030000       0.000000
                                                         0.091371      -0.041080
                                                         0.293823       0.227881
                                                         1.065127       0.154529
                                                         4.947701       0.528758
                                                        34.177738       3.211471

                          1       3    3s                0.030000       0.000000
                                                         0.091371       0.076395
                                                         0.293823       0.077306
                                                         1.065127       0.164523
                                                         4.947701      -0.040048
                                                        34.177738      -1.131577

                          1       4    4s                0.030000       0.043550
                                                         0.091371      -0.026138
                                                         0.293823      -0.246542
                                                         1.065127      -0.077212
                                                         4.947701       0.000000
                                                        34.177738       0.000000

                          1       5    2px               0.030000       0.000000
                                                         0.091371       0.008886
                                                         0.293823      -0.007684
                                                         1.065127       1.416453
                                                         4.947701       1.341091
                                                        34.177738     -11.084238
                          1       5    2py               0.030000       0.000000
                                                         0.091371       0.008886
                                                         0.293823      -0.007684
                                                         1.065127       1.416453
                                                         4.947701       1.341091
                                                        34.177738     -11.084238
                          1       5    2pz               0.030000       0.000000
                                                         0.091371       0.008886
                                                         0.293823      -0.007684
                                                         1.065127       1.416453
                                                         4.947701       1.341091
                                                        34.177738     -11.084238

                          1       6    3px               0.030000       0.000000
                                                         0.091371      -0.013062
                                                         0.293823       0.330130
                                                         1.065127       0.106963
                                                         4.947701      -0.549928
                                                        34.177738       9.643751
                          1       6    3py               0.030000       0.000000
                                                         0.091371      -0.013062
                                                         0.293823       0.330130
                                                         1.065127       0.106963
                                                         4.947701      -0.549928
                                                        34.177738       9.643751
                          1       6    3pz               0.030000       0.000000
                                                         0.091371      -0.013062
                                                         0.293823       0.330130
                                                         1.065127       0.106963
                                                         4.947701      -0.549928
                                                        34.177738       9.643751

                          1       7    4px               0.030000       0.014060
                                                         0.091371       0.022273
                                                         0.293823      -0.026384
                                                         1.065127       0.024249
                                                         4.947701       0.000000
                                                        34.177738       0.000000
                          1       7    4py               0.030000       0.014060
                                                         0.091371       0.022273
                                                         0.293823      -0.026384
                                                         1.065127       0.024249
                                                         4.947701       0.000000
                                                        34.177738       0.000000
                          1       7    4pz               0.030000       0.014060
                                                         0.091371       0.022273
                                                         0.293823      -0.026384
                                                         1.065127       0.024249
                                                         4.947701       0.000000
                                                        34.177738       0.000000

                          1       8    3dx2              0.030000       0.000000
                                                         0.091371      -0.004737
                                                         0.293823       0.052231
                                                         1.065127       1.617163
                                                         4.947701      -1.124420
                                                        34.177738       9.702470
                          1       8    3dxy              0.030000       0.000000
                                                         0.091371      -0.008204
                                                         0.293823       0.090468
                                                         1.065127       2.801009
                                                         4.947701      -1.947552
                                                        34.177738      16.805171
                          1       8    3dxz              0.030000       0.000000
                                                         0.091371      -0.008204
                                                         0.293823       0.090468
                                                         1.065127       2.801009
                                                         4.947701      -1.947552
                                                        34.177738      16.805171
                          1       8    3dy2              0.030000       0.000000
                                                         0.091371      -0.004737
                                                         0.293823       0.052231
                                                         1.065127       1.617163
                                                         4.947701      -1.124420
                                                        34.177738       9.702470
                          1       8    3dyz              0.030000       0.000000
                                                         0.091371      -0.008204
                                                         0.293823       0.090468
                                                         1.065127       2.801009
                                                         4.947701      -1.947552
                                                        34.177738      16.805171
                          1       8    3dz2              0.030000       0.000000
                                                         0.091371      -0.004737
                                                         0.293823       0.052231
                                                         1.065127       1.617163
                                                         4.947701      -1.124420
                                                        34.177738       9.702470

                          1       9    4dx2              0.030000       0.002444
                                                         0.091371       0.004703
                                                         0.293823       0.069647
                                                         1.065127       0.196246
                                                         4.947701       0.000000
                                                        34.177738       0.000000
                          1       9    4dxy              0.030000       0.004233
                                                         0.091371       0.008146
                                                         0.293823       0.120632
                                                         1.065127       0.339908
                                                         4.947701       0.000000
                                                        34.177738       0.000000
                          1       9    4dxz              0.030000       0.004233
                                                         0.091371       0.008146
                                                         0.293823       0.120632
                                                         1.065127       0.339908
                                                         4.947701       0.000000
                                                        34.177738       0.000000
                          1       9    4dy2              0.030000       0.002444
                                                         0.091371       0.004703
                                                         0.293823       0.069647
                                                         1.065127       0.196246
                                                         4.947701       0.000000
                                                        34.177738       0.000000
                          1       9    4dyz              0.030000       0.004233
                                                         0.091371       0.008146
                                                         0.293823       0.120632
                                                         1.065127       0.339908
                                                         4.947701       0.000000
                                                        34.177738       0.000000
                          1       9    4dz2              0.030000       0.002444
                                                         0.091371       0.004703
                                                         0.293823       0.069647
                                                         1.065127       0.196246
                                                         4.947701       0.000000
                                                        34.177738       0.000000

     RI Auxiliary Basis Set             RI_aug-TZVP-MOLOPT-ae_N_RI_023_s_p_d_f_g

       Number of orbital shell sets:                                           9
       Number of orbital shells:                                               9
       Number of primitive Cartesian functions:                                9
       Number of Cartesian basis functions:                                   25
       Number of spherical basis functions:                                   23
       Norm type:                                                              2

       Normalised Cartesian orbitals:

                        Set   Shell   Orbital            Exponent    Coefficient

                          1       1    5px               0.199704       0.190293
                          1       1    5py               0.199704       0.190293
                          1       1    5pz               0.199704       0.190293

                          2       1    8dx2              0.371061       0.290361
                          2       1    8dxy              0.371061       0.502921
                          2       1    8dxz              0.371061       0.502921
                          2       1    8dy2              0.371061       0.290361
                          2       1    8dyz              0.371061       0.502921
                          2       1    8dz2              0.371061       0.290361

                          3       1    1s                0.487032       0.415507

                          4       1    6px               0.587762       0.733571
                          4       1    6py               0.587762       0.733571
                          4       1    6pz               0.587762       0.733571

                          5       1    9dx2              1.486370       3.293301
                          5       1    9dxy              1.486370       5.704165
                          5       1    9dxz              1.486370       5.704165
                          5       1    9dy2              1.486370       3.293301
                          5       1    9dyz              1.486370       5.704165
                          5       1    9dz2              1.486370       3.293301

                          6       1    2s                1.774445       1.095739

                          7       1    7px               2.162097       3.737094
                          7       1    7py               2.162097       3.737094
                          7       1    7pz               2.162097       3.737094

                          8       1    3s                6.464982       2.889586

                          9       1    4s               23.554401       7.620161

       Atomic covalent radius [Angstrom]:                                  0.320

       Atomic van der Waals radius [Angstrom]:                             1.090

     The atoms of this atomic kind are PAW atoms (GAPW):
       Hard Gaussian function radius:                                      1.200
       Rho0 radius:                                                        1.200
       Maximum GTO radius used for PAW projector construction:            24.566

     GAPW Soft Basis Set                                 aug-TZVP-MOLOPT-ae_soft

       Number of orbital shell sets:                                           1
       Number of orbital shells:                                               9
       Number of primitive Cartesian functions:                                5
       Number of Cartesian basis functions:                                   25
       Number of spherical basis functions:                                   23
       Norm type:                                                              2

       Normalised Cartesian orbitals:

                        Set   Shell   Orbital            Exponent    Coefficient

                          1       1    1s                0.030000       0.000000
                                                         0.091371      -0.049397
                                                         0.293823      -0.051765
                                                         1.065127       0.831136
                                                         4.947701      -0.270539

                          1       2    2s                0.030000       0.000000
                                                         0.091371      -0.041080
                                                         0.293823       0.227881
                                                         1.065127       0.154529
                                                         4.947701       0.528758

                          1       3    3s                0.030000       0.000000
                                                         0.091371       0.076395
                                                         0.293823       0.077306
                                                         1.065127       0.164523
                                                         4.947701      -0.040048

                          1       4    4s                0.030000       0.043550
                                                         0.091371      -0.026138
                                                         0.293823      -0.246542
                                                         1.065127      -0.077212
                                                         4.947701       0.000000

                          1       5    2px               0.030000       0.000000
                                                         0.091371       0.008886
                                                         0.293823      -0.007684
                                                         1.065127       1.416453
                                                         4.947701       1.341091
                          1       5    2py               0.030000       0.000000
                                                         0.091371       0.008886
                                                         0.293823      -0.007684
                                                         1.065127       1.416453
                                                         4.947701       1.341091
                          1       5    2pz               0.030000       0.000000
                                                         0.091371       0.008886
                                                         0.293823      -0.007684
                                                         1.065127       1.416453
                                                         4.947701       1.341091

                          1       6    3px               0.030000       0.000000
                                                         0.091371      -0.013062
                                                         0.293823       0.330130
                                                         1.065127       0.106963
                                                         4.947701      -0.549928
                          1       6    3py               0.030000       0.000000
                                                         0.091371      -0.013062
                                                         0.293823       0.330130
                                                         1.065127       0.106963
                                                         4.947701      -0.549928
                          1       6    3pz               0.030000       0.000000
                                                         0.091371      -0.013062
                                                         0.293823       0.330130
                                                         1.065127       0.106963
                                                         4.947701      -0.549928

                          1       7    4px               0.030000       0.014060
                                                         0.091371       0.022273
                                                         0.293823      -0.026384
                                                         1.065127       0.024249
                                                         4.947701       0.000000
                          1       7    4py               0.030000       0.014060
                                                         0.091371       0.022273
                                                         0.293823      -0.026384
                                                         1.065127       0.024249
                                                         4.947701       0.000000
                          1       7    4pz               0.030000       0.014060
                                                         0.091371       0.022273
                                                         0.293823      -0.026384
                                                         1.065127       0.024249
                                                         4.947701       0.000000

                          1       8    3dx2              0.030000       0.000000
                                                         0.091371      -0.004737
                                                         0.293823       0.052231
                                                         1.065127       1.617163
                                                         4.947701      -1.124420
                          1       8    3dxy              0.030000       0.000000
                                                         0.091371      -0.008204
                                                         0.293823       0.090468
                                                         1.065127       2.801009
                                                         4.947701      -1.947552
                          1       8    3dxz              0.030000       0.000000
                                                         0.091371      -0.008204
                                                         0.293823       0.090468
                                                         1.065127       2.801009
                                                         4.947701      -1.947552
                          1       8    3dy2              0.030000       0.000000
                                                         0.091371      -0.004737
                                                         0.293823       0.052231
                                                         1.065127       1.617163
                                                         4.947701      -1.124420
                          1       8    3dyz              0.030000       0.000000
                                                         0.091371      -0.008204
                                                         0.293823       0.090468
                                                         1.065127       2.801009
                                                         4.947701      -1.947552
                          1       8    3dz2              0.030000       0.000000
                                                         0.091371      -0.004737
                                                         0.293823       0.052231
                                                         1.065127       1.617163
                                                         4.947701      -1.124420

                          1       9    4dx2              0.030000       0.002444
                                                         0.091371       0.004703
                                                         0.293823       0.069647
                                                         1.065127       0.196246
                                                         4.947701       0.000000
                          1       9    4dxy              0.030000       0.004233
                                                         0.091371       0.008146
                                                         0.293823       0.120632
                                                         1.065127       0.339908
                                                         4.947701       0.000000
                          1       9    4dxz              0.030000       0.004233
                                                         0.091371       0.008146
                                                         0.293823       0.120632
                                                         1.065127       0.339908
                                                         4.947701       0.000000
                          1       9    4dy2              0.030000       0.002444
                                                         0.091371       0.004703
                                                         0.293823       0.069647
                                                         1.065127       0.196246
                                                         4.947701       0.000000
                          1       9    4dyz              0.030000       0.004233
                                                         0.091371       0.008146
                                                         0.293823       0.120632
                                                         1.065127       0.339908
                                                         4.947701       0.000000
                          1       9    4dz2              0.030000       0.002444
                                                         0.091371       0.004703
                                                         0.293823       0.069647
                                                         1.065127       0.196246
                                                         4.947701       0.000000

     AE Potential information for                                            ALL

       Description:                                       All-electron potential
                                          Krack, Parrinello, PCCP 2, 2105 (2000)

       Gaussian exponent of the core charge distribution:              12.500000
       Electronic configuration (s p d ...):                           1   0   0


 MOLECULE KIND INFORMATION


 All atoms are their own molecule, skipping detailed information


 TOTAL NUMBERS AND MAXIMUM NUMBERS

  Total number of            - Atomic kinds:                                   1
                             - Atoms:                                          2
                             - Shell sets:                                     2
                             - Shells:                                        18
                             - Primitive Cartesian functions:                 12
                             - Cartesian basis functions:                     50
                             - Spherical basis functions:                     46

  Maximum angular momentum of the orbital basis functions:                     2


 MODULE QUICKSTEP: ATOMIC COORDINATES IN ANGSTROM

   Atom Kind Element         X             Y             Z       Z(eff)     Mass
      1    1 H     1     15.370946     15.000000     15.000000   1.0000   1.0079
      2    1 H     1     14.629054     15.000000     15.000000   1.0000   1.0079



 SCF PARAMETERS         Density guess:                                    ATOMIC
                        --------------------------------------------------------
                        max_scf:                                             500
                        max_scf_history:                                       0
                        max_diis:                                              4
                        --------------------------------------------------------
                        eps_scf:                                        1.00E-06
                        eps_scf_history:                                0.00E+00
                        eps_diis:                                       1.00E-01
                        eps_eigval:                                     1.00E-05
                        --------------------------------------------------------
                        level_shift [a.u.]:                             0.000000
                        added MOs                                        45    0
                        --------------------------------------------------------
                        Mixing method:                            BROYDEN_MIXING
                                                charge density mixing in g-space
                        --------------------------------------------------------
                        No outer SCF

 PW_GRID| Information for grid number                                          1
 PW_GRID| Grid distributed over                                    48 processors
 PW_GRID| Real space group dimensions                                    48    1
 PW_GRID| the grid is blocked:                                                NO
 PW_GRID| Cutoff [a.u.]                                                    250.0
 PW_GRID| spherical cutoff:                                                   NO
 PW_GRID|   Bounds   1           -202     202                Points:         405
 PW_GRID|   Bounds   2           -202     202                Points:         405
 PW_GRID|   Bounds   3           -202     202                Points:         405
 PW_GRID| Volume element (a.u.^3)  0.2743E-02     Volume (a.u.^3)    182205.0337
 PW_GRID| Grid span                                                    FULLSPACE
 PW_GRID|   Distribution                         Average         Max         Min
 PW_GRID|   G-Vectors                          1383960.9     1384290     1383885
 PW_GRID|   G-Rays                                3417.2        3418        3417
 PW_GRID|   Real Space Points                  1383960.9     1476225     1312200

 PW_GRID| Information for grid number                                          2
 PW_GRID| Number of the reference grid                                         1
 PW_GRID| Grid distributed over                                    48 processors
 PW_GRID| Real space group dimensions                                    48    1
 PW_GRID| the grid is blocked:                                                NO
 PW_GRID| Cutoff [a.u.]                                                     83.3
 PW_GRID| spherical cutoff:                                                   NO
 PW_GRID|   Bounds   1           -120     119                Points:         240
 PW_GRID|   Bounds   2           -120     119                Points:         240
 PW_GRID|   Bounds   3           -120     119                Points:         240
 PW_GRID| Volume element (a.u.^3)  0.1318E-01     Volume (a.u.^3)    182205.0337
 PW_GRID| Grid span                                                    FULLSPACE
 PW_GRID|   Distribution                         Average         Max         Min
 PW_GRID|   G-Vectors                           288000.0      288720      287520
 PW_GRID|   G-Rays                                1200.0        1203        1198
 PW_GRID|   Real Space Points                   288000.0      288000      288000

 PW_GRID| Information for grid number                                          3
 PW_GRID| Number of the reference grid                                         1
 PW_GRID| Grid distributed over                                    48 processors
 PW_GRID| Real space group dimensions                                    48    1
 PW_GRID| the grid is blocked:                                                NO
 PW_GRID| Cutoff [a.u.]                                                     27.8
 PW_GRID| spherical cutoff:                                                   NO
 PW_GRID|   Bounds   1            -67      67                Points:         135
 PW_GRID|   Bounds   2            -67      67                Points:         135
 PW_GRID|   Bounds   3            -67      67                Points:         135
 PW_GRID| Volume element (a.u.^3)  0.7406E-01     Volume (a.u.^3)    182205.0337
 PW_GRID| Grid span                                                    FULLSPACE
 PW_GRID|   Distribution                         Average         Max         Min
 PW_GRID|   G-Vectors                            51257.8       51570       51030
 PW_GRID|   G-Rays                                 379.7         382         378
 PW_GRID|   Real Space Points                    51257.8       54675       36450

 PW_GRID| Information for grid number                                          4
 PW_GRID| Number of the reference grid                                         1
 PW_GRID| Grid distributed over                                    48 processors
 PW_GRID| Real space group dimensions                                    48    1
 PW_GRID| the grid is blocked:                                                NO
 PW_GRID| Cutoff [a.u.]                                                      9.3
 PW_GRID| spherical cutoff:                                                   NO
 PW_GRID|   Bounds   1            -40      39                Points:          80
 PW_GRID|   Bounds   2            -40      39                Points:          80
 PW_GRID|   Bounds   3            -40      39                Points:          80
 PW_GRID| Volume element (a.u.^3)  0.3559         Volume (a.u.^3)    182205.0337
 PW_GRID| Grid span                                                    FULLSPACE
 PW_GRID|   Distribution                         Average         Max         Min
 PW_GRID|   G-Vectors                            10666.7       10800       10560
 PW_GRID|   G-Rays                                 133.3         135         132
 PW_GRID|   Real Space Points                    10666.7       12800        6400

 POISSON| Solver                                                         WAVELET
 POISSON| Wavelet| Scaling function                                           40
 POISSON| Periodicity                                                       NONE

 RS_GRID| Information for grid number                                          1
 RS_GRID|   Bounds   1           -202     202                Points:         405
 RS_GRID|   Bounds   2           -202     202                Points:         405
 RS_GRID|   Bounds   3           -202     202                Points:         405
 RS_GRID| Real space distribution over                                  3 groups
 RS_GRID| Real space distribution along direction                              1
 RS_GRID| Border size                                                         31
 RS_GRID| Real space distribution over                                  4 groups
 RS_GRID| Real space distribution along direction                              2
 RS_GRID| Border size                                                         31
 RS_GRID| Real space distribution over                                  4 groups
 RS_GRID| Real space distribution along direction                              3
 RS_GRID| Border size                                                         31
 RS_GRID|   Distribution                         Average         Max         Min
 RS_GRID|   Planes                                 197.0         197         197
 RS_GRID|   Distribution                         Average         Max         Min
 RS_GRID|   Planes                                 163.2         164         163
 RS_GRID|   Distribution                         Average         Max         Min
 RS_GRID|   Planes                                 163.2         164         163

 RS_GRID| Information for grid number                                          2
 RS_GRID|   Bounds   1           -120     119                Points:         240
 RS_GRID|   Bounds   2           -120     119                Points:         240
 RS_GRID|   Bounds   3           -120     119                Points:         240
 RS_GRID| Real space distribution over                                  3 groups
 RS_GRID| Real space distribution along direction                              1
 RS_GRID| Border size                                                         36
 RS_GRID| Real space distribution over                                  4 groups
 RS_GRID| Real space distribution along direction                              2
 RS_GRID| Border size                                                         36
 RS_GRID| Real space distribution over                                  4 groups
 RS_GRID| Real space distribution along direction                              3
 RS_GRID| Border size                                                         36
 RS_GRID|   Distribution                         Average         Max         Min
 RS_GRID|   Planes                                 152.0         152         152
 RS_GRID|   Distribution                         Average         Max         Min
 RS_GRID|   Planes                                 132.0         132         132
 RS_GRID|   Distribution                         Average         Max         Min
 RS_GRID|   Planes                                 132.0         132         132

 RS_GRID| Information for grid number                                          3
 RS_GRID|   Bounds   1            -67      67                Points:         135
 RS_GRID|   Bounds   2            -67      67                Points:         135
 RS_GRID|   Bounds   3            -67      67                Points:         135
 RS_GRID| Real space fully replicated
 RS_GRID| Group size                                                           1

 RS_GRID| Information for grid number                                          4
 RS_GRID|   Bounds   1            -40      39                Points:          80
 RS_GRID|   Bounds   2            -40      39                Points:          80
 RS_GRID|   Bounds   3            -40      39                Points:          80
 RS_GRID| Real space fully replicated
 RS_GRID| Group size                                                           1

  HFX_INFO| Replica ID:                                                        1
  HFX_INFO| FRACTION:                                               0.2500000000
  HFX_INFO| Interaction Potential:                                       COULOMB
  HFX_INFO| EPS_SCHWARZ:                                                 1.0E-10
  HFX_INFO| EPS_SCHWARZ_FORCES                                           1.0E-08
  HFX_INFO| EPS_STORAGE_SCALING:                                         1.0E+00
  HFX_INFO| NBINS:                                                            64
  HFX_INFO| BLOCK_SIZE:                                                        1
  HFX_INFO| Number of periodic shells considered:                           NONE
  HFX_INFO| Number of periodic cells considered:                            NONE

 
 RI-RPA| using GPW style
 

 OVERLAP MATRIX CONDITION NUMBER
 1-Norm Condition Number (Estimate)
   CN : |A|*|A^-1|:  5.823E+000 *  8.472E+003   = 4.933E+004  Log(1-CN):  4.6931
 1-Norm and 2-Norm Condition Numbers using Diagonalization
   CN : |A|*|A^-1|:  5.823E+000 *  8.472E+003   = 4.933E+004  Log(1-CN):  4.6931
   CN : max/min ev:  4.404E+000 /  1.731E-004   = 2.545E+004  Log(2-CN):  4.4057

 Number of electrons:                                                          2
 Number of occupied orbitals:                                                  1
 Number of molecular orbitals:                                                46

 Number of orbital functions:                                                 46
 Number of independent orbital functions:                                     46

 Extrapolation method: initial_guess

 Atomic guess: The first density matrix is obtained in terms of atomic orbitals
               and electronic configurations assigned to each atomic kind

 Guess for atomic kind: H

 Electronic structure
    Total number of core electrons                                          0.00
    Total number of valence electrons                                       1.00
    Total number of electrons                                               1.00
    Multiplicity                                                   not specified
    S      1.00


 *******************************************************************************
                  Iteration          Convergence                     Energy [au]
 *******************************************************************************
                          1        0.733196E-02                  -0.445117623880
                          2        0.859241E-03                  -0.445212006904
                          3        0.845006E-04                  -0.445214656295
                          4        0.112741E-06                  -0.445214675972

 Energy components [Hartree]           Total Energy ::           -0.445214675972
                                        Band Energy ::           -0.233330933424
                                     Kinetic Energy ::            0.424855784484
                                   Potential Energy ::           -0.870070460456
                                      Virial (-V/T) ::            2.047919534654
                                        Core Energy ::           -0.495467353870
                                          XC Energy ::           -0.231971319510
                                     Coulomb Energy ::            0.282223997408

 Orbital energies  State     L     Occupation   Energy[a.u.]          Energy[eV]

                       1     0          1.000      -0.233331           -6.349258


 Total Electron Density at R=0:                                         0.248077
 Re-scaling the density matrix to get the right number of electrons
                  # Electrons              Trace(P)               Scaling factor
                            2                 2.000                        1.000


 SCF WAVEFUNCTION OPTIMIZATION

  Step     Update method      Time    Convergence         Total energy    Change
  ------------------------------------------------------------------------------

  HFX_MEM_INFO| Est. max. program size before HFX [MiB]:                    1290
  HFX_MEM_INFO| Number of cart. primitive ERI's calculated:             77250000
  HFX_MEM_INFO| Number of sph. ERI's calculated:                         1679046
  HFX_MEM_INFO| Number of sph. ERI's stored in-core:                     1679046
  HFX_MEM_INFO| Number of sph. ERI's stored on disk:                           0
  HFX_MEM_INFO| Number of sph. ERI's calculated on the fly:                    0
  HFX_MEM_INFO| Total memory consumption ERI's RAM [MiB]:                      9
  HFX_MEM_INFO| Whereof max-vals [MiB]:                                        2
  HFX_MEM_INFO| Total compression factor ERI's RAM:                         1.50
  HFX_MEM_INFO| Total memory consumption ERI's disk [MiB]:                     0
  HFX_MEM_INFO| Total compression factor ERI's disk:                        0.00
  HFX_MEM_INFO| Size of density/Fock matrix [MiB]:                             0
  HFX_MEM_INFO| Size of buffers [MiB]:                                         8
  HFX_MEM_INFO| Est. max. program size after HFX  [MiB]:                    1793

     1 NoMix/Diag. 0.10E+00    6.5     0.48126369        -0.9432900279 -9.43E-01
     2 Broy./Diag. 0.10E+00    2.6     0.02301258        -0.7493647187  1.94E-01
     3 Broy./Diag. 0.10E+00    2.7     0.01715733        -0.3529084568  3.96E-01
     4 Broy./Diag. 0.10E+00    2.7     0.00238665        -0.4403989042 -8.75E-02
     5 Broy./Diag. 0.10E+00    2.8     0.00460206        -0.5294748012 -8.91E-02
     6 Broy./Diag. 0.10E+00    2.8     0.00230841        -0.5634560330 -3.40E-02
     7 Broy./Diag. 0.10E+00    2.7     0.01731187        -0.7629646800 -2.00E-01
     8 Broy./Diag. 0.10E+00    2.7     0.00733725        -0.8576775496 -9.47E-02
     9 Broy./Diag. 0.10E+00    2.8     0.00281292        -0.8936752651 -3.60E-02
    10 Broy./Diag. 0.10E+00    2.8     0.00688399        -0.9611550238 -6.75E-02
    11 Broy./Diag. 0.10E+00    2.8     0.01689123        -1.1119850748 -1.51E-01
    12 Broy./Diag. 0.10E+00    2.8     0.00317048        -1.1560672301 -4.41E-02
    13 Broy./Diag. 0.10E+00    2.9     0.00029709        -1.1564153344 -3.48E-04
    14 Broy./Diag. 0.10E+00    2.9     0.00113240        -1.1651506209 -8.74E-03
    15 Broy./Diag. 0.10E+00    2.8     0.00216535        -1.1715233291 -6.37E-03
    16 Broy./Diag. 0.10E+00    2.8     0.00130707        -1.1639233040  7.60E-03
    17 Broy./Diag. 0.10E+00    2.8     0.00056911        -1.1625639559  1.36E-03
    18 Broy./Diag. 0.10E+00    2.8     0.00094288        -1.1683550902 -5.79E-03
    19 Broy./Diag. 0.10E+00    2.8     0.00141597        -1.1684543872 -9.93E-05
    20 Broy./Diag. 0.10E+00    2.8     0.00084816        -1.1674470895  1.01E-03
    21 Broy./Diag. 0.10E+00    2.9     0.00024412        -1.1688951787 -1.45E-03
    22 Broy./Diag. 0.10E+00    2.8     0.00039652        -1.1681017626  7.93E-04
    23 Broy./Diag. 0.10E+00    2.8     0.00018919        -1.1684292424 -3.27E-04
    24 Broy./Diag. 0.10E+00    2.8     0.00009265        -1.1685486027 -1.19E-04
    25 Broy./Diag. 0.10E+00    2.8     0.00017433        -1.1683325458  2.16E-04
    26 Broy./Diag. 0.10E+00    2.8     0.00005689        -1.1685630994 -2.31E-04
    27 Broy./Diag. 0.10E+00    2.8     0.00016769        -1.1682804698  2.83E-04
    28 Broy./Diag. 0.10E+00    2.8     0.00009562        -1.1683620679 -8.16E-05
    29 Broy./Diag. 0.10E+00    2.8     0.00002145        -1.1684890455 -1.27E-04
    30 Broy./Diag. 0.10E+00    2.9     0.00011029        -1.1684154548  7.36E-05
    31 Broy./Diag. 0.10E+00    2.8     0.00000819        -1.1684346980 -1.92E-05
    32 Broy./Diag. 0.10E+00    2.9     0.00010444        -1.1684844738 -4.98E-05
    33 Broy./Diag. 0.10E+00    2.8     0.00000852        -1.1684413819  4.31E-05
    34 Broy./Diag. 0.10E+00    2.9     0.00000296        -1.1683994698  4.19E-05
    35 Broy./Diag. 0.10E+00    2.8     0.00000873        -1.1684386481 -3.92E-05
    36 Broy./Diag. 0.10E+00    2.8     0.00001985        -1.1684489300 -1.03E-05
    37 Broy./Diag. 0.10E+00    2.8     0.00003977        -1.1684615388 -1.26E-05
    38 Broy./Diag. 0.10E+00    2.9     0.00000625        -1.1684793520 -1.78E-05
    39 Broy./Diag. 0.10E+00    2.8     0.00002607        -1.1684673130  1.20E-05
    40 Broy./Diag. 0.10E+00    2.8     0.00000139        -1.1684660147  1.30E-06
    41 Broy./Diag. 0.10E+00    2.8     0.00001287        -1.1684755600 -9.55E-06
    42 Broy./Diag. 0.10E+00    2.8     0.00001996        -1.1684650999  1.05E-05
    43 Broy./Diag. 0.10E+00    2.8     0.00001692        -1.1684630185  2.08E-06
    44 Broy./Diag. 0.10E+00    2.8     0.00000550        -1.1684577635  5.25E-06
    45 Broy./Diag. 0.10E+00    2.8     0.00000340        -1.1684467866  1.10E-05
    46 Broy./Diag. 0.10E+00    2.9     0.00000209        -1.1684524583 -5.67E-06
    47 Broy./Diag. 0.10E+00    2.8     0.00000246        -1.1684513388  1.12E-06
    48 Broy./Diag. 0.10E+00    2.8     0.00001313        -1.1684494085  1.93E-06
    49 Broy./Diag. 0.10E+00    2.9     0.00000104        -1.1684514249 -2.02E-06
    50 Broy./Diag. 0.10E+00    2.8     0.00000106        -1.1684506738  7.51E-07
    51 Broy./Diag. 0.10E+00    2.8     0.00000152        -1.1684512651 -5.91E-07
    52 Broy./Diag. 0.10E+00    2.8     0.00000171        -1.1684519575 -6.92E-07
    53 Broy./Diag. 0.10E+00    2.8     0.00000152        -1.1684518538  1.04E-07
    54 Broy./Diag. 0.10E+00    2.9     0.00000710        -1.1684523224 -4.69E-07
    55 Broy./Diag. 0.10E+00    2.9     0.00000102        -1.1684528735 -5.51E-07
    56 Broy./Diag. 0.10E+00    2.8     0.00000030        -1.1684522556  6.18E-07

  *** SCF run converged in    56 steps ***


  Electronic density on regular grids:         -1.9954460838        0.0045539162
  Core density on regular grids:                2.0000000000       -0.0000000000
  Hard and soft densities (Lebedev):          -10.7157279438      -10.7111742547
  Total Rho_soft + Rho1_hard - Rho1_soft       -1.9999997729
  Total charge density (r-space):               0.0000002271
  Total Rho_soft + Rho0_soft (g-space):         0.0000002208

  Overlap energy of the core charge distribution:               0.00000051136925
  Self energy of the core charge distribution:                 -2.82094791773878
  Core Hamiltonian energy:                                      0.97987437447274
  Hartree energy:                                               1.09124536467051
  Exchange-correlation energy:                                 -0.52651187850759
  Hartree-Fock Exchange energy:                                -0.16445410788159

  GAPW| Exc from hard and soft atomic rho1:                    -0.00268942911706
  GAPW| local Eh = 1 center integrals:                          0.27503082712076

  Total energy:                                                -1.16845225561176

 !-----------------------------------------------------------------------------!
                     Mulliken Population Analysis

 #  Atom  Element  Kind  Atomic population                           Net charge
       1     H        1          1.000000                             -0.000000
       2     H        1          1.000000                              0.000000
 # Total charge                              2.000000                  0.000000

 !-----------------------------------------------------------------------------!

 !-----------------------------------------------------------------------------!
                           Hirshfeld Charges

  #Atom  Element  Kind  Ref Charge     Population                    Net charge
      1       H      1       1.000          0.932                         0.068
      2       H      1       1.000          0.932                         0.068

  Total Charge                                                            0.136
 !-----------------------------------------------------------------------------!


 RI-RPA section
 --------------

  Used number of processes per group:                                          1
  Maximum allowed memory usage per MPI process:                      1024.00 MiB

 *******************************************************************************
 *   ___                                                                       *
 *  /   \                                                                      *
 * [ABORT]                                                                     *
 *  \___/   Product of block size and number of RI functions should not exceed *
 *    |                          total number of processes                     *
 *  O/|                                                                        *
 * /| |                                                                        *
 * / \                                                         mp2_ri_2c.F:892 *
 *******************************************************************************


 ===== Routine Calling Stack ===== 

            7 compute_2c_integrals
            6 get_2c_integrals
            5 mp2_ri_gpw_compute_in
            4 mp2_gpw_main
            3 mp2_main
            2 qs_energies
            1 CP2K

 *******************************************************************************
 *   ___                                                                       *
 *  /   \                                                                      *
 * [ABORT]                                                                     *
 *  \___/   Product of block size and number of RI functions should not exceed *
 *    |                          total number of processes                     *
 *  O/|                                                                        *
 * /| |                                                                        *
 * / \                                                         mp2_ri_2c.F:892 *

 *******************************************************************************
 *   ___                                                                       *
 *  /   \                                                                      *
 * [ABORT]                                                                     *
 *  \___/   Product of block size and number of RI functions should not exceed *
 *    |                          total number of processes                     *
 *  O/|                                                                        *
 * /| |                                                                        *
 * / \                                                         mp2_ri_2c.F:892 *
 *******************************************************************************


 ===== Routine Calling Stack ===== 

            7 compute_2c_integrals
            6 get_2c_integrals
            5 mp2_ri_gpw_compute_in
            4 mp2_gpw_main
            3 mp2_main
            2 qs_energies

 *******************************************************************************
 *   ___                                                                       *
 *  /   \                                                                      *
 * [ABORT]                                                                     *
 *  \___/   Product of block size and number of RI functions should not exceed *
 *    |                          total number of processes                     *
 *  O/|                                                                        *
 * /| |                                                                        *

 *******************************************************************************
 *   ___                                                                       *
 *  /   \                                                                      *
 * [ABORT]                                                                     *
 *  \___/   Product of block size and number of RI functions should not exceed *
 *    |                          total number of processes                     *
 *  O/|                                                                        *
 * /| |                                                                        *
 * / \                                                         mp2_ri_2c.F:892 *
 *******************************************************************************


 ===== Routine Calling Stack ===== 


 *******************************************************************************
 *   ___                                                                       *
 *  /   \                                                                      *
 * [ABORT]                                                                     *
 *  \___/   Product of block size and number of RI functions should not exceed *
 *    |                          total number of processes                     *
 *  O/|                                                                        *
 * /| |                                                                        *
 * / \                                                         mp2_ri_2c.F:892 *
 *******************************************************************************


 ===== Routine Calling Stack ===== 

            7 compute_2c_integrals
            6 get_2c_integrals
            5 mp2_ri_gpw_compute_in
            4 mp2_gpw_main
            3 mp2_main
            2 qs_energies
            1 CP2K

 *******************************************************************************
 *   ___                                                                       *
 *  /   \                                                                      *
 * [ABORT]                                                                     *
 *  \___/   Product of block size and number of RI functions should not exceed *
 *    |                          total number of processes                     *
 *  O/|                                                                        *
 * /| |                                                                        *
 *
 *******************************************************************************
 *   ___                                                                       *
 *  /   \                                                                      *
 * [ABORT]                                                                     *
 *  \___/   Product of block size and number of RI functions should not exceed *
 *    |                          total number of processes                     *
 *  O/|                                                                        *
 * /| |                                                                        *
 * / \                                                         mp2_ri_2c.F:892 *
 *******************************************************************************


 ===== Routine Calling Stack ===== 

            7 compute_2c_integrals
            6 get_2c_integrals
            5 mp2_ri_gpw_compute_in
            4 mp2_gpw_main
            3 mp2_main
            2 qs_energies
            1 CP2K

 *******************************************************************************
 *   ___                                                                       *
 *  /   \                                                                      *
 * [ABORT]                                                                     *
 *  \___/   Product of block size and number of RI functions should not exceed *
 *    |                          total number of processes                     *
 *  O/|                                                                        *
 * /| |                                                                        *
 * / \                                                         mp2_ri_2c.F:892 *
 *******************************************************************************


 ===== Routine Calling Stack ===== 

            7 compute_2c_integrals
            6 get_2c_integrals
            5 mp2_ri_gpw_compute_in
            4 mp2_gpw_main
            3 mp2_main
            2 qs_energies

 *******************************************************************************
 *   ___                                                                       *
 *  /   \                                                                      *
 * [ABORT]                                                                     *
 *  \___/   Product of block size and number of RI functions should not exceed *
 *    |                          total number of processes                     *
 *  O/|                                                                        *
 * /| |                                                                        *
 * / \                                                         mp2_ri_2c.F:892 *
 *******************************************************************************


 ===== Routine Calling Stack ===== 

            7 compute_2c_integrals
            6 get_2c_integrals
            5 mp2_ri_gpw_compute_in
            4 mp2_gpw_main
            3 mp2_main
            2 qs_energies
            1 CP2K

 *******************************************************************************
 *   ___                                                                       *
 *  /   \                                                                      *
 * [ABORT]                                                                     *
 *  \___/   Product of block size and number of RI functions should not exceed *
 *    |    
 *******************************************************************************
 *   ___                                                                       *
 *  /   \                                                                      *
 * [ABORT]                                                                     *
 *  \___/   Product of block size and number of RI functions should not exceed *
 *    |                          total number of processes                     *
 *  O/|                                                                        *
 * /| |                                                                        *
 * / \                                                         mp2_ri_2c.F:892 *
 *******************************************************************************


 ===== Routine Calling Stack ===== 

            7 compute_2c_integrals
            6 get_2c_integrals
            5 mp2_ri_gpw_compute_in
            4 mp2_gpw_main
            3 mp2_main
            2 qs_energies
            1 CP2K
 *******************************************************************************


 ===== Routine Calling Stack ===== 

            7 compute_2c_integrals
            6 get_2c_integrals
            5 mp2_ri_gpw_compute_in
            4 mp2_gpw_main
            3 mp2_main
            2 qs_energies
            1 CP2K
            1 CP2K
 * / \                                                         mp2_ri_2c.F:892 *
 *******************************************************************************


 ===== Routine Calling Stack ===== 

            7 compute_2c_integrals
            6 get_2c_integrals
            5 mp2_ri_gpw_compute_in
            4 mp2_gpw_main
            3 mp2_main
            2 qs_energies
            1 CP2K
            7 compute_2c_integrals
            6 get_2c_integrals
            5 mp2_ri_gpw_compute_in
            4 mp2_gpw_main
            3 mp2_main
            2 qs_energies
            1 CP2K
 / \                                                         mp2_ri_2c.F:892 *
 *******************************************************************************


 ===== Routine Calling Stack ===== 

            7 compute_2c_integrals
            6 get_2c_integrals
            5 mp2_ri_gpw_compute_in
            4 mp2_gpw_main
            3 mp2_main
            2 qs_energies
            1 CP2K
            1 CP2K
                      total number of processes                     *
 *  O/|                                                                        *
 * /| |                                                                        *
 * / \                                                         mp2_ri_2c.F:892 *
 *******************************************************************************


 ===== Routine Calling Stack ===== 

            7 compute_2c_integrals
            6 get_2c_integrals
            5 mp2_ri_gpw_compute_in
            4 mp2_gpw_main
            3 mp2_main
            2 qs_energies
            1 CP2K

 *******************************************************************************
 *   ___                                                                       *
 *  /   \                                                                      *
 * [ABORT]                                                                     *
 *  \___/   Product of block size and number of RI functions should not exceed *
 *    |                          total number of processes                     *
 *  O/|                                                                        *
 *
 *******************************************************************************
 *   ___                                                                       *
[...]
 *  O/|                                                                        *
 * /| |                                                                        *
 * / \                                                         mp2_ri_2c.F:892 *
 *******************************************************************************


 ===== Routine Calling Stack ===== 

            7 compute_2c_integrals
            6 get_2c_integrals
            5 mp2_ri_gpw_compute_in
            4 mp2_gpw_main
            3 mp2_main
            2 qs_energies
            1 CP2K

 *******************************************************************************
 *   ___                                                                       *
 *  /   \                                                                      *
 * [ABORT]                                                                     *
 *  \___/   Product of block size and number of RI functions should not exceed *
 *    |                          total number of processes                     *
 *  O/|                                                                        *
 * /| |                                                                        *
 * / \                                                         mp2_ri_2c.F:892 *
 *******************************************************************************


 ===== Routine Calling Stack ===== 

            7 compute_2c_integrals
            6 get_2c_integrals
            5 mp2_ri_gpw_compute_in
            4 mp2_gpw_main
            3 mp2_main
            2 qs_energies
            1 CP2K

 *******************************************************************************
 *   ___                                                                       *
 *  /   \                                                                      *
 * [ABORT]                                                                     *
 *  \___/   Product of block size and number of RI functions should not exceed *
 *    |                          total number of processes                     *
 *  O/|                                                                        *
 * /| |                                                                        *
 * / \                                                         mp2_ri_2c.F:892 *
 *******************************************************************************


 ===== Routine Calling Stack ===== 

            7 compute_2c_integrals
            6 get_2c_integrals
            5 mp2_ri_gpw_compute_in
            4 mp2_gpw_main
            3 mp2_main
            2 qs_energies
            1 CP2K

 *******************************************************************************
 *   ___                                                                       *
 *  /   \                                                                      *
 * [ABORT]                                                                     *
 *  \___/   Product of block size and number of RI functions should not exceed *
 *    |                          total number of processes                     *
 *  O/|                                                                        *
 * /| |                                                                        *
 * / \                                                         mp2_ri_2c.F:892 *
 *******************************************************************************


 ===== Routine Calling Stack ===== 

            7 compute_2c_integrals
            6 get_2c_integrals
            5 mp2_ri_gpw_compute_in
            4 mp2_gpw_main
            3 mp2_main
            2 qs_energies
            1 CP2K

 *******************************************************************************
 *   ___                                                                       *
 *  /   \                                                                      *
 * [ABORT]                                                                     *
 *  \___/   Product of block size and number of RI functions should not exceed *
 *    |                          total number of processes                     *
 *  O/|                                                                        *
 * /| |                                                                        *
 * / \                                                         mp2_ri_2c.F:892 *
 *******************************************************************************


 ===== Routine Calling Stack ===== 

            7 compute_2c_integrals
            6 get_2c_integrals
            5 mp2_ri_gpw_compute_in
            4 mp2_gpw_main
            3 mp2_main
            2 qs_energies
            1 CP2K

 *******************************************************************************
 *   ___                                                                       *
 *  /   \                                                                      *
 * [ABORT]                                                                     *
 *  \___/   Product of block size and number of RI functions should not exceed *
 *    |                          total number of processes                     *
 *  O/|                                                                        *
 * /| |                                                                        *
 * / \                                                         mp2_ri_2c.F:892 *
 *******************************************************************************


 ===== Routine Calling Stack ===== 

            7 compute_2c_integrals
            6 get_2c_integrals
            5 mp2_ri_gpw_compute_in
            4 mp2_gpw_main
            3 mp2_main
            2 qs_energies
            1 CP2K

 *******************************************************************************
 *   ___                                                                       *
 *  /   \                                                                      *
 * [ABORT]                                                                     *
 *  \___/   Product of block size and number of RI functions should not exceed *
 *    |                          total number of processes                     *
 *  O/|                                                                        *
 * /| |                                                                        *
 * / \                                                         mp2_ri_2c.F:892 *
 *******************************************************************************


 ===== Routine Calling Stack ===== 

            7 compute_2c_integrals
            6 get_2c_integrals
            5 mp2_ri_gpw_compute_in
            4 mp2_gpw_main
            3 mp2_main
            2 qs_energies
            1 CP2K

 *******************************************************************************
 *   ___                                                                       *
 *  /   \                                                                      *
 * [ABORT]                                                                     *
 *  \___/   Product of block size and number of RI functions should not exceed *
 *    |                          total number of processes                     *
 *  O/|                                                                        *
 * /| |                                                                        *
 * / \                                                         mp2_ri_2c.F:892 *
 *******************************************************************************


 ===== Routine Calling Stack ===== 

            7 compute_2c_integrals
            6 get_2c_integrals
            5 mp2_ri_gpw_compute_in
            4 mp2_gpw_main
            3 mp2_main
            2 qs_energies
            1 CP2K

 *******************************************************************************
 *   ___                                                                       *
 *  /   \                                                                      *
 * [ABORT]                                                                     *
 *  \___/   Product of block size and number of RI functions should not exceed *
 *    |                          total number of processes                     *
 *  O/|                                                                        *
 * /| |                                                                        *
 * / \                                                         mp2_ri_2c.F:892 *
 *******************************************************************************


 ===== Routine Calling Stack ===== 

            7 compute_2c_integrals
            6 get_2c_integrals
            5 mp2_ri_gpw_compute_in
            4 mp2_gpw_main
            3 mp2_main
            2 qs_energies
            1 CP2K

 *******************************************************************************
 *   ___                                                                       *
 *  /   \                                                                      *
 * [ABORT]                                                                     *
 *  \___/   Product of block size and number of RI functions should not exceed *
 *    |                          total number of processes                     *
 *  O/|                                                                        *
 * /| |                                                                        *
 * / \                                                         mp2_ri_2c.F:892 *
 *******************************************************************************


 ===== Routine Calling Stack ===== 

            7 compute_2c_integrals
            6 get_2c_integrals
            5 mp2_ri_gpw_compute_in
            4 mp2_gpw_main
            3 mp2_main
            2 qs_energies
            1 CP2K

 *******************************************************************************
 *   ___                                                                       *
 *  /   \                                                                      *
 * [ABORT]                                                                     *
 *  \___/   Product of block size and number of RI functions should not exceed *
 *    |                          total number of processes                     *
 *  O/|                                                                        *
 * /| |                                                                        *
 * / \                                                         mp2_ri_2c.F:892 *
 *******************************************************************************


 ===== Routine Calling Stack ===== 

            7 compute_2c_integrals
            6 get_2c_integrals
            5 mp2_ri_gpw_compute_in
            4 mp2_gpw_main
            3 mp2_main
            2 qs_energies
            1 CP2K

 *******************************************************************************
 *   ___                                                                       *
 *  /   \                                                                      *
 * [ABORT]                                                                     *
 *  \___/   Product of block size and number of RI functions should not exceed *
 *    |                          total number of processes                     *
 *  O/|                                                                        *
 * /| |                                                                        *
 * / \                                                         mp2_ri_2c.F:892 *
 *******************************************************************************


 ===== Routine Calling Stack ===== 

            7 compute_2c_integrals
            6 get_2c_integrals
            5 mp2_ri_gpw_compute_in
            4 mp2_gpw_main
            3 mp2_main
            2 qs_energies
            1 CP2K

 *******************************************************************************
 *   ___                                                                       *
 *  /   \                                                                      *
 * [ABORT]                                                                     *
 *  \___/   Product of block size and number of RI functions should not exceed *
 *    |                          total number of processes                     *
 *  O/|                                                                        *
 * /| |                                                                        *
 * / \                                                         mp2_ri_2c.F:892 *
 *******************************************************************************


 ===== Routine Calling Stack ===== 

            7 compute_2c_integrals
            6 get_2c_integrals
            5 mp2_ri_gpw_compute_in
            4 mp2_gpw_main
            3 mp2_main
            2 qs_energies
            1 CP2K

 *******************************************************************************
 *   ___                                                                       *
 *  /   \                                                                      *
 * [ABORT]                                                                     *
 *  \___/   Product of block size and number of RI functions should not exceed *
 *    |                          total number of processes                     *
 *  O/|                                                                        *
 * /| |                                                                        *
 * / \                                                         mp2_ri_2c.F:892 *
 *******************************************************************************


 ===== Routine Calling Stack ===== 

            7 compute_2c_integrals
            6 get_2c_integrals
            5 mp2_ri_gpw_compute_in
            4 mp2_gpw_main
            3 mp2_main
            2 qs_energies
            1 CP2K

 *******************************************************************************
 *   ___                                                                       *
 *  /   \                                                                      *
 * [ABORT]                                                                     *
 *  \___/   Product of block size and number of RI functions should not exceed *
 *    |                          total number of processes                     *
 *  O/|                                                                        *
 * /| |                                                                        *
 * / \                                                         mp2_ri_2c.F:892 *
 *******************************************************************************


 ===== Routine Calling Stack ===== 

            7 compute_2c_integrals
            6 get_2c_integrals
            5 mp2_ri_gpw_compute_in
            4 mp2_gpw_main
            3 mp2_main
            2 qs_energies
            1 CP2K

 *******************************************************************************
 *   ___                                                                       *
 *  /   \                                                                      *
 * [ABORT]                                                                     *
 *  \___/   Product of block size and number of RI functions should not exceed *
 *    |                          total number of processes                     *
 *  O/|                                                                        *
 * /| |                                                                        *
 * / \                                                         mp2_ri_2c.F:892 *
 *******************************************************************************


 ===== Routine Calling Stack ===== 

            7 compute_2c_integrals
            6 get_2c_integrals
            5 mp2_ri_gpw_compute_in
            4 mp2_gpw_main
            3 mp2_main
            2 qs_energies
            1 CP2K
            2 qs_energies
            1 CP2K

 *******************************************************************************
 *   ___                                                                       *
 *  /   \                                                                      *
 * [ABORT]                                                                     *
 *  \___/   Product of block size and number of RI functions should not exceed *
 *    |                          total number of processes                     *
 *  O/|                                                                        *
 * /| |                                                                        *
 * / \                                                         mp2_ri_2c.F:892 *
 *******************************************************************************


 ===== Routine Calling Stack ===== 

            7 compute_2c_integrals
            6 get_2c_integrals
            5 mp2_ri_gpw_compute_in
            4 mp2_gpw_main
            3 mp2_main
            2 qs_energies
            1 CP2K
 /| |                                                                        *
 * / \                                                         mp2_ri_2c.F:892 *
 *******************************************************************************


 ===== Routine Calling Stack ===== 

            7 compute_2c_integrals
            6 get_2c_integrals
            5 mp2_ri_gpw_compute_in
            4 mp2_gpw_main
            3 mp2_main
            2 qs_energies
            1 CP2K
            2 qs_energies
            1 CP2K

 *******************************************************************************
 *   ___                                                                       *
 *  /   \                                                                      *
 * [ABORT]                                                                     *
 *  \___/   Product of block size and number of RI functions should not exceed *
 *    |                          total number of processes                     *
 *  O/|                                                                        *
 * /| |                                                                        *
 * / \                                                         mp2_ri_2c.F:892 *
 *******************************************************************************


 ===== Routine Calling Stack ===== 

            7 compute_2c_integrals
            6 get_2c_integrals
            5 mp2_ri_gpw_compute_in
            4 mp2_gpw_main
            3 mp2_main
            2 qs_energies
            1 CP2K

 *******************************************************************************
 *   ___                                                                       *
 *  /   \                                                                      *
 * [ABORT]                                                                     *
 *  \___/   Product of block size and number of RI functions should not exceed *
 *    |                          total number of processes                     *
 *  O/|                                                                        *
 * /| |                                                                        *
 * / \                                                         mp2_ri_2c.F:892 *
 *******************************************************************************


 ===== Routine Calling Stack ===== 

            7 compute_2c_integrals
            6 get_2c_integrals
            5 mp2_ri_gpw_compute_in
            4 mp2_gpw_main
            3 mp2_main
            2 qs_energies
            1 CP2K
