 DBCSR| CPU Multiplication driver                                           BLAS (U)
 DBCSR| Multrec recursion limit                                              512 (U)
 DBCSR| Multiplication stack size                                           1000 (D)
 DBCSR| Maximum elements for images                                    UNLIMITED (U)
 DBCSR| Multiplicative factor virtual images                                   1 (U)
 DBCSR| Use multiplication densification                                       T (D)
 DBCSR| Multiplication size stacks                                             3 (U)
 DBCSR| Use memory pool for CPU allocation                                     F (U)
 DBCSR| Number of 3D layers                                               SINGLE (U)
 DBCSR| Use MPI memory allocation                                              F (U)
 DBCSR| Use RMA algorithm                                                      F (U)
 DBCSR| Use Communication thread                                               T (U)
 DBCSR| Communication thread load                                             75 (D)
 DBCSR| MPI: My process id                                                     0
 DBCSR| MPI: Number of processes                                              48
 DBCSR| OMP: Current number of threads                                         4
 DBCSR| OMP: Max number of threads                                             4
 DBCSR| Split modifier for TAS multiplication algorithm                  1.0E+00 (U)


  **** **** ******  **  PROGRAM STARTED AT               2025-03-18 22:47:49.053
 ***** ** ***  *** **   PROGRAM STARTED ON                          i01r07c02s06
 **    ****   ******    PROGRAM STARTED BY                               di38fab
 ***** **    ** ** **   PROGRAM PROCESS ID                               2700334
  **** **  *******  **  PROGRAM STARTED IN /hppfs/scratch/04/di38fab/05_MOL/W4-1
                                           1+ALK/li2/aug-cc-pVQZ/GW+BSE

 CP2K| version string:                 CP2K version 2025.1 (Development Version)
 CP2K| source code revision number:                                  git:d2e611a
 CP2K| cp2kflags: omp libint fftw3 libxc parallel scalapack max_contr=4         
 CP2K| is freely available from                            https://www.cp2k.org/
 CP2K| Program compiled at                       Thu 06 Mar 2025 05:09:20 PM CET
 CP2K| Program compiled on                                               login02
 CP2K| Program compiled for                                        Supermuc-foss
 CP2K| Data directory path                  /hppfs/work/pn36zo/di38fab/cp2k/data
 CP2K| Input file name                                                    GW.inp

 GLOBAL| Force Environment number                                              1
 GLOBAL| Basis set file name            /hppfs/scratch/04/di38fab/04_TMD/BASIS_A
 GLOBAL| Potential file name            /hppfs/work/pn36zo/di38fab/cp2k/data/ALL
 GLOBAL| MM Potential file name                                     MM_POTENTIAL
 GLOBAL| Coordinate file name                                      __STD_INPUT__
 GLOBAL| Method name                                                        CP2K
 GLOBAL| Project name                                                       MoS2
 GLOBAL| Run type                                                         ENERGY
 GLOBAL| FFT library                                                       FFTW3
 GLOBAL| Diagonalization library                                       ScaLAPACK
 GLOBAL| DGEMM library                                                      BLAS
 GLOBAL| Orthonormality check for eigenvectors                          DISABLED
 GLOBAL| Matrix multiplication library                                 ScaLAPACK
 GLOBAL| All-to-all communication in single precision                          F
 GLOBAL| FFTs using library dependent lengths                                  F
 GLOBAL| Grid backend                                                       AUTO
 GLOBAL| Global print level                                               MEDIUM
 GLOBAL| MPI I/O enabled                                                       T
 GLOBAL| Total number of message passing processes                            48
 GLOBAL| Number of threads for this process                                    4
 GLOBAL| This output is from process                                           0
 GLOBAL| OpenMP stack size per thread (OMP_STACKSIZE)                    default
 GLOBAL| CPU model name             Intel(R) Xeon(R) Platinum 8174 CPU @ 3.10GHz

 MEMORY| system memory details [Kb]
 MEMORY|                        rank 0           min           max       average
 MEMORY| MemTotal             98436708      98436664      98436708      98436675
 MEMORY| MemFree              84181476      83964392      84202724      84110184
 MEMORY| Buffers                     0             0             0             0
 MEMORY| Cached                2390552       2390552       2426996       2405961
 MEMORY| Slab                  1112936       1112936       1255680       1202065
 MEMORY| SReclaimable           252660        252660        276192        266345
 MEMORY| MemLikelyFree        86824688      86648008      86861932      86782490


 *** Fundamental physical constants (SI units) ***

 *** Literature: B. J. Mohr and B. N. Taylor,
 ***             CODATA recommended values of the fundamental physical
 ***             constants: 2006, Web Version 5.1
 ***             http://physics.nist.gov/constants

 Speed of light in vacuum [m/s]                             2.99792458000000E+08
 Magnetic constant or permeability of vacuum [N/A**2]       1.25663706143592E-06
 Electric constant or permittivity of vacuum [F/m]          8.85418781762039E-12
 Planck constant (h) [J*s]                                  6.62606896000000E-34
 Planck constant (h-bar) [J*s]                              1.05457162825177E-34
 Elementary charge [C]                                      1.60217648700000E-19
 Electron mass [kg]                                         9.10938215000000E-31
 Electron g factor [ ]                                     -2.00231930436220E+00
 Proton mass [kg]                                           1.67262163700000E-27
 Fine-structure constant                                    7.29735253760000E-03
 Rydberg constant [1/m]                                     1.09737315685270E+07
 Avogadro constant [1/mol]                                  6.02214179000000E+23
 Boltzmann constant [J/K]                                   1.38065040000000E-23
 Atomic mass unit [kg]                                      1.66053878200000E-27
 Bohr radius [m]                                            5.29177208590000E-11

 *** Conversion factors ***

 [u] -> [a.u.]                                              1.82288848426455E+03
 [Angstrom] -> [Bohr] = [a.u.]                              1.88972613288564E+00
 [a.u.] = [Bohr] -> [Angstrom]                              5.29177208590000E-01
 [a.u.] -> [s]                                              2.41888432650478E-17
 [a.u.] -> [fs]                                             2.41888432650478E-02
 [a.u.] -> [J]                                              4.35974393937059E-18
 [a.u.] -> [N]                                              8.23872205491840E-08
 [a.u.] -> [K]                                              3.15774647902944E+05
 [a.u.] -> [kJ/mol]                                         2.62549961709828E+03
 [a.u.] -> [kcal/mol]                                       6.27509468713739E+02
 [a.u.] -> [Pa]                                             2.94210107994716E+13
 [a.u.] -> [bar]                                            2.94210107994716E+08
 [a.u.] -> [atm]                                            2.90362800883016E+08
 [a.u.] -> [eV]                                             2.72113838565563E+01
 [a.u.] -> [Hz]                                             6.57968392072181E+15
 [a.u.] -> [1/cm] (wave numbers)                            2.19474631370540E+05
 [a.u./Bohr**2] -> [1/cm]                                   5.14048714338585E+03
 

 CELL_TOP| Volume [angstrom^3]:                                     27000.000000
 CELL_TOP| Vector a [angstrom    30.000     0.000     0.000   |a| =    30.000000
 CELL_TOP| Vector b [angstrom     0.000    30.000     0.000   |b| =    30.000000
 CELL_TOP| Vector c [angstrom     0.000     0.000    30.000   |c| =    30.000000
 CELL_TOP| Angle (b,c), alpha [degree]:                                90.000000
 CELL_TOP| Angle (a,c), beta  [degree]:                                90.000000
 CELL_TOP| Angle (a,b), gamma [degree]:                                90.000000
 CELL_TOP| Numerically orthorhombic:                                         YES
 CELL_TOP| Periodicity                                                      NONE

 GENERATE|  Preliminary Number of Bonds generated:                             0
 GENERATE|  Achieved consistency in connectivity generation.

 CELL| Volume [angstrom^3]:                                         27000.000000
 CELL| Vector a [angstrom]:      30.000     0.000     0.000   |a| =    30.000000
 CELL| Vector b [angstrom]:       0.000    30.000     0.000   |b| =    30.000000
 CELL| Vector c [angstrom]:       0.000     0.000    30.000   |c| =    30.000000
 CELL| Angle (b,c), alpha [degree]:                                    90.000000
 CELL| Angle (a,c), beta  [degree]:                                    90.000000
 CELL| Angle (a,b), gamma [degree]:                                    90.000000
 CELL| Numerically orthorhombic:                                             YES
 CELL| Periodicity                                                          NONE

 CELL_REF| Volume [angstrom^3]:                                     27000.000000
 CELL_REF| Vector a [angstrom    30.000     0.000     0.000   |a| =    30.000000
 CELL_REF| Vector b [angstrom     0.000    30.000     0.000   |b| =    30.000000
 CELL_REF| Vector c [angstrom     0.000     0.000    30.000   |c| =    30.000000
 CELL_REF| Angle (b,c), alpha [degree]:                                90.000000
 CELL_REF| Angle (a,c), beta  [degree]:                                90.000000
 CELL_REF| Angle (a,b), gamma [degree]:                                90.000000
 CELL_REF| Numerically orthorhombic:                                         YES
 CELL_REF| Periodicity                                                      NONE

 *******************************************************************************
 *******************************************************************************
 **                                                                           **
 **     #####                         ##              ##                      **
 **    ##   ##            ##          ##              ##                      **
 **   ##     ##                       ##            ######                    **
 **   ##     ##  ##   ##  ##   #####  ##  ##   ####   ##    #####    #####    **
 **   ##     ##  ##   ##  ##  ##      ## ##   ##      ##   ##   ##  ##   ##   **
 **   ##  ## ##  ##   ##  ##  ##      ####     ###    ##   ######   ######    **
 **    ##  ###   ##   ##  ##  ##      ## ##      ##   ##   ##       ##        **
 **     #######   #####   ##   #####  ##  ##  ####    ##    #####   ##        **
 **           ##                                                    ##        **
 **                                                                           **
 **                                                ... make the atoms dance   **
 **                                                                           **
 **            Copyright (C) by CP2K developers group (2000-2025)             **
 **                      J. Chem. Phys. 152, 194103 (2020)                    **
 **                                                                           **
 *******************************************************************************

 DFT| Spin restricted Kohn-Sham (RKS) calculation                            RKS
 DFT| Multiplicity                                                             1
 DFT| Number of spin states                                                    1
 DFT| Charge                                                                   0
 DFT| Self-interaction correction (SIC)                                       NO
 DFT| Cutoffs: density                                              1.000000E-10
 DFT|          gradient                                             1.000000E-10
 DFT|          tau                                                  1.000000E-10
 DFT|          cutoff_smoothing_range                               0.000000E+00
 DFT| XC density smoothing                                                  NONE
 DFT| XC derivatives                                                          PW

 FUNCTIONAL| PBE:
 FUNCTIONAL| J.P.Perdew, K.Burke, M.Ernzerhof, Phys. Rev. Letter, vol. 77, n 18,
 FUNCTIONAL|  pp. 3865-3868, (1996)sx=0.750sc=1.000{spin unpolarized}           


 QS| Method:                                                                GAPW
 QS| Density plane wave grid type                        NON-SPHERICAL FULLSPACE
 QS| Number of grid levels:                                                    4
 QS| Density cutoff [a.u.]:                                                250.0
 QS| Multi grid cutoff [a.u.]: 1) grid level                               250.0
 QS|                           2) grid level                                83.3
 QS|                           3) grid level                                27.8
 QS|                           4) grid level                                 9.3
 QS| Grid level progression factor:                                          3.0
 QS| Relative density cutoff [a.u.]:                                        50.0
 QS| Interaction thresholds: eps_pgf_orb:                                1.0E-12
 QS|                         eps_filter_matrix:                          0.0E+00
 QS|                         eps_core_charge:                            1.0E-14
 QS|                         eps_rho_gspace:                             1.0E-12
 QS|                         eps_rho_rspace:                             1.0E-12
 QS|                         eps_gvg_rspace:                             1.0E-06
 QS|                         eps_ppl:                                    1.0E-02
 QS|                         eps_ppnl:                                   1.0E-08
 QS| GAPW|      One center basis from orbital basis primitives
 QS| GAPW|                   eps_fit:                                    1.0E-04
 QS| GAPW|                   eps_iso:                                    1.0E-12
 QS| GAPW|                   eps_svd:                                    1.0E-08
 QS| GAPW|                   eps_cpc:                                    1.0E-12
 QS| GAPW|   atom-r-grid: quadrature:                                     GC_LOG
 QS| GAPW|      atom-s-grid:  max l :                                          8
 QS| GAPW|      max_l_rho0 :                                                   2


 ATOMIC KIND INFORMATION

  1. Atomic kind: li                                    Number of atoms:       2

     Orbital Basis Set                                               aug-cc-pVQZ

       Number of orbital shell sets:                                          10
       Number of orbital shells:                                              20
       Number of primitive Cartesian functions:                               29
       Number of Cartesian basis functions:                                  105
       Number of spherical basis functions:                                   80
       Norm type:                                                              2

       Normalised Cartesian orbitals:

                        Set   Shell   Orbital            Exponent    Coefficient

                          1       1    1s                0.006400       0.016127

                          2       1    1px               0.007500       0.003146
                          2       1    1py               0.007500       0.003146
                          2       1    1pz               0.007500       0.003146

                          3       1    1px               6.250000       0.000000
                                                         1.370000       0.000000
                                                         0.367200       0.000000
                                                         0.119200       0.099836
                                                         0.044740       0.000000
                                                         0.017950       0.000000
                          3       1    1py               6.250000       0.000000
                                                         1.370000       0.000000
                                                         0.367200       0.000000
                                                         0.119200       0.099836
                                                         0.044740       0.000000
                                                         0.017950       0.000000
                          3       1    1pz               6.250000       0.000000
                                                         1.370000       0.000000
                                                         0.367200       0.000000
                                                         0.119200       0.099836
                                                         0.044740       0.000000
                                                         0.017950       0.000000

                          3       2    2px               6.250000       0.047724
                                                         1.370000       0.040809
                                                         0.367200       0.032230
                                                         0.119200       0.027364
                                                         0.044740       0.015237
                                                         0.017950       0.002664
                          3       2    2py               6.250000       0.047724
                                                         1.370000       0.040809
                                                         0.367200       0.032230
                                                         0.119200       0.027364
                                                         0.044740       0.015237
                                                         0.017950       0.002664
                          3       2    2pz               6.250000       0.047724
                                                         1.370000       0.040809
                                                         0.367200       0.032230
                                                         0.119200       0.027364
                                                         0.044740       0.015237
                                                         0.017950       0.002664

                          3       3    3px               6.250000       0.000000
                                                         1.370000       0.000000
                                                         0.367200       0.000000
                                                         0.119200       0.000000
                                                         0.044740       0.029330
                                                         0.017950       0.000000
                          3       3    3py               6.250000       0.000000
                                                         1.370000       0.000000
                                                         0.367200       0.000000
                                                         0.119200       0.000000
                                                         0.044740       0.029330
                                                         0.017950       0.000000
                          3       3    3pz               6.250000       0.000000
                                                         1.370000       0.000000
                                                         0.367200       0.000000
                                                         0.119200       0.000000
                                                         0.044740       0.029330
                                                         0.017950       0.000000

                          3       4    4px               6.250000       0.000000
                                                         1.370000       0.000000
                                                         0.367200       0.000000
                                                         0.119200       0.000000
                                                         0.044740       0.000000
                                                         0.017950       0.009365
                          3       4    4py               6.250000       0.000000
                                                         1.370000       0.000000
                                                         0.367200       0.000000
                                                         0.119200       0.000000
                                                         0.044740       0.000000
                                                         0.017950       0.009365
                          3       4    4pz               6.250000       0.000000
                                                         1.370000       0.000000
                                                         0.367200       0.000000
                                                         0.119200       0.000000
                                                         0.044740       0.000000
                                                         0.017950       0.009365

                          4       1    1s             6601.000000       0.061066
                                                       989.700000       0.114566
                                                       225.700000       0.196217
                                                        64.290000       0.310635
                                                        21.180000       0.443628
                                                         7.724000       0.538931
                                                         3.003000       0.511857
                                                         1.212000       0.324312
                                                         0.493000       0.082572
                                                         0.095150       0.001221
                                                         0.047910      -0.000394
                                                         0.022200       0.000070

                          4       2    2s             6601.000000       0.000000
                                                       989.700000       0.000000
                                                       225.700000       0.000000
                                                        64.290000       0.000000
                                                        21.180000       0.000000
                                                         7.724000       0.000000
                                                         3.003000       0.000000
                                                         1.212000       0.000000
                                                         0.493000       0.000000
                                                         0.095150       0.122100
                                                         0.047910       0.000000
                                                         0.022200       0.000000

                          4       3    3s             6601.000000       0.000000
                                                       989.700000       0.000000
                                                       225.700000       0.000000
                                                        64.290000       0.000000
                                                        21.180000       0.000000
                                                         7.724000       0.000000
                                                         3.003000       0.000000
                                                         1.212000       0.000000
                                                         0.493000       0.000000
                                                         0.095150       0.000000
                                                         0.047910       0.072984
                                                         0.022200       0.000000

                          4       4    4s             6601.000000      -0.009395
                                                       989.700000      -0.017858
                                                       225.700000      -0.030752
                                                        64.290000      -0.048868
                                                        21.180000      -0.071230
                                                         7.724000      -0.089467
                                                         3.003000      -0.093256
                                                         1.212000      -0.077300
                                                         0.493000      -0.050776
                                                         0.095150       0.033774
                                                         0.047910       0.040108
                                                         0.022200       0.011370

                          4       5    5s             6601.000000       0.000000
                                                       989.700000       0.000000
                                                       225.700000       0.000000
                                                        64.290000       0.000000
                                                        21.180000       0.000000
                                                         7.724000       0.000000
                                                         3.003000       0.000000
                                                         1.212000       0.000000
                                                         0.493000       0.000000
                                                         0.095150       0.000000
                                                         0.047910       0.000000
                                                         0.022200       0.040990

                          5       1    1dx2              0.027200       0.002999
                          5       1    1dxy              0.027200       0.005194
                          5       1    1dxz              0.027200       0.005194
                          5       1    1dy2              0.027200       0.002999
                          5       1    1dyz              0.027200       0.005194
                          5       1    1dz2              0.027200       0.002999

                          6       1    1fx3              0.050400       0.001772
                          6       1    1fx2y             0.050400       0.003962
                          6       1    1fx2z             0.050400       0.003962
                          6       1    1fxy2             0.050400       0.003962
                          6       1    1fxyz             0.050400       0.006862
                          6       1    1fxz2             0.050400       0.003962
                          6       1    1fy3              0.050400       0.001772
                          6       1    1fy2z             0.050400       0.003962
                          6       1    1fyz2             0.050400       0.003962
                          6       1    1fz3              0.050400       0.001772

                          7       1    1dx2              0.335200       0.243048
                                                         0.148200       0.000000
                                                         0.065600       0.000000
                          7       1    1dxy              0.335200       0.420971
                                                         0.148200       0.000000
                                                         0.065600       0.000000
                          7       1    1dxz              0.335200       0.420971
                                                         0.148200       0.000000
                                                         0.065600       0.000000
                          7       1    1dy2              0.335200       0.243048
                                                         0.148200       0.000000
                                                         0.065600       0.000000
                          7       1    1dyz              0.335200       0.420971
                                                         0.148200       0.000000
                                                         0.065600       0.000000
                          7       1    1dz2              0.335200       0.243048
                                                         0.148200       0.000000
                                                         0.065600       0.000000

                          7       2    2dx2              0.335200       0.000000
                                                         0.148200       0.058263
                                                         0.065600       0.000000
                          7       2    2dxy              0.335200       0.000000
                                                         0.148200       0.100915
                                                         0.065600       0.000000
                          7       2    2dxz              0.335200       0.000000
                                                         0.148200       0.100915
                                                         0.065600       0.000000
                          7       2    2dy2              0.335200       0.000000
                                                         0.148200       0.058263
                                                         0.065600       0.000000
                          7       2    2dyz              0.335200       0.000000
                                                         0.148200       0.100915
                                                         0.065600       0.000000
                          7       2    2dz2              0.335200       0.000000
                                                         0.148200       0.058263
                                                         0.065600       0.000000

                          7       3    3dx2              0.335200       0.000000
                                                         0.148200       0.000000
                                                         0.065600       0.013996
                          7       3    3dxy              0.335200       0.000000
                                                         0.148200       0.000000
                                                         0.065600       0.024241
                          7       3    3dxz              0.335200       0.000000
                                                         0.148200       0.000000
                                                         0.065600       0.024241
                          7       3    3dy2              0.335200       0.000000
                                                         0.148200       0.000000
                                                         0.065600       0.013996
                          7       3    3dyz              0.335200       0.000000
                                                         0.148200       0.000000
                                                         0.065600       0.024241
                          7       3    3dz2              0.335200       0.000000
                                                         0.148200       0.000000
                                                         0.065600       0.013996

                          8       1    1gx4              0.104100       0.002210
                          8       1    1gx3y             0.104100       0.005848
                          8       1    1gx3z             0.104100       0.005848
                          8       1    1gx2y2            0.104100       0.007549
                          8       1    1gx2yz            0.104100       0.013076
                          8       1    1gx2z2            0.104100       0.007549
                          8       1    1gxy3             0.104100       0.005848
                          8       1    1gxy2z            0.104100       0.013076
                          8       1    1gxyz2            0.104100       0.013076
                          8       1    1gxz3             0.104100       0.005848
                          8       1    1gy4              0.104100       0.002210
                          8       1    1gy3z             0.104100       0.005848
                          8       1    1gy2z2            0.104100       0.007549
                          8       1    1gyz3             0.104100       0.005848
                          8       1    1gz4              0.104100       0.002210

                          9       1    1fx3              0.228000       0.052882
                                                         0.113500       0.000000
                          9       1    1fx2y             0.228000       0.118248
                                                         0.113500       0.000000
                          9       1    1fx2z             0.228000       0.118248
                                                         0.113500       0.000000
                          9       1    1fxy2             0.228000       0.118248
                                                         0.113500       0.000000
                          9       1    1fxyz             0.228000       0.204811
                                                         0.113500       0.000000
                          9       1    1fxz2             0.228000       0.118248
                                                         0.113500       0.000000
                          9       1    1fy3              0.228000       0.052882
                                                         0.113500       0.000000
                          9       1    1fy2z             0.228000       0.118248
                                                         0.113500       0.000000
                          9       1    1fyz2             0.228000       0.118248
                                                         0.113500       0.000000
                          9       1    1fz3              0.228000       0.052882
                                                         0.113500       0.000000

                          9       2    2fx3              0.228000       0.000000
                                                         0.113500       0.011008
                          9       2    2fx2y             0.228000       0.000000
                                                         0.113500       0.024614
                          9       2    2fx2z             0.228000       0.000000
                                                         0.113500       0.024614
                          9       2    2fxy2             0.228000       0.000000
                                                         0.113500       0.024614
                          9       2    2fxyz             0.228000       0.000000
                                                         0.113500       0.042632
                          9       2    2fxz2             0.228000       0.000000
                                                         0.113500       0.024614
                          9       2    2fy3              0.228000       0.000000
                                                         0.113500       0.011008
                          9       2    2fy2z             0.228000       0.000000
                                                         0.113500       0.024614
                          9       2    2fyz2             0.228000       0.000000
                                                         0.113500       0.024614
                          9       2    2fz3              0.228000       0.000000
                                                         0.113500       0.011008

                         10       1    1gx4              0.231900       0.019999
                         10       1    1gx3y             0.231900       0.052913
                         10       1    1gx3z             0.231900       0.052913
                         10       1    1gx2y2            0.231900       0.068310
                         10       1    1gx2yz            0.231900       0.118317
                         10       1    1gx2z2            0.231900       0.068310
                         10       1    1gxy3             0.231900       0.052913
                         10       1    1gxy2z            0.231900       0.118317
                         10       1    1gxyz2            0.231900       0.118317
                         10       1    1gxz3             0.231900       0.052913
                         10       1    1gy4              0.231900       0.019999
                         10       1    1gy3z             0.231900       0.052913
                         10       1    1gy2z2            0.231900       0.068310
                         10       1    1gyz3             0.231900       0.052913
                         10       1    1gz4              0.231900       0.019999

     RI Auxiliary Basis Set                                    aug-cc-pV5Z-RIFIT

       Number of orbital shell sets:                                          46
       Number of orbital shells:                                              46
       Number of primitive Cartesian functions:                               46
       Number of Cartesian basis functions:                                  371
       Number of spherical basis functions:                                  242
       Norm type:                                                              2

       Normalised Cartesian orbitals:

                        Set   Shell   Orbital            Exponent    Coefficient

                          1       1    1s                0.030479       0.051989

                          2       1    1px               0.045175       0.029687
                          2       1    1py               0.045175       0.029687
                          2       1    1pz               0.045175       0.029687

                          3       1    1dx2              0.048718       0.008315
                          3       1    1dxy              0.048718       0.014402
                          3       1    1dxz              0.048718       0.014402
                          3       1    1dy2              0.048718       0.008315
                          3       1    1dyz              0.048718       0.014402
                          3       1    1dz2              0.048718       0.008315

                          4       1    1s                0.064288       0.090993

                          5       1    1fx3              0.065213       0.003164
                          5       1    1fx2y             0.065213       0.007075
                          5       1    1fx2z             0.065213       0.007075
                          5       1    1fxy2             0.065213       0.007075
                          5       1    1fxyz             0.065213       0.012253
                          5       1    1fxz2             0.065213       0.007075
                          5       1    1fy3              0.065213       0.003164
                          5       1    1fy2z             0.065213       0.007075
                          5       1    1fyz2             0.065213       0.007075
                          5       1    1fz3              0.065213       0.003164

                          6       1    1px               0.072777       0.053881
                          6       1    1py               0.072777       0.053881
                          6       1    1pz               0.072777       0.053881

                          7       1    1gx4              0.099854       0.001971
                          7       1    1gx3y             0.099854       0.005215
                          7       1    1gx3z             0.099854       0.005215
                          7       1    1gx2y2            0.099854       0.006732
                          7       1    1gx2yz            0.099854       0.011661
                          7       1    1gx2z2            0.099854       0.006732
                          7       1    1gxy3             0.099854       0.005215
                          7       1    1gxy2z            0.099854       0.011661
                          7       1    1gxyz2            0.099854       0.011661
                          7       1    1gxz3             0.099854       0.005215
                          7       1    1gy4              0.099854       0.001971
                          7       1    1gy3z             0.099854       0.005215
                          7       1    1gy2z2            0.099854       0.006732
                          7       1    1gyz3             0.099854       0.005215
                          7       1    1gz4              0.099854       0.001971

                          8       1    1dx2              0.101078       0.029823
                          8       1    1dxy              0.101078       0.051656
                          8       1    1dxz              0.101078       0.051656
                          8       1    1dy2              0.101078       0.029823
                          8       1    1dyz              0.101078       0.051656
                          8       1    1dz2              0.101078       0.029823

                          9       1    1px               0.121261       0.101998
                          9       1    1py               0.121261       0.101998
                          9       1    1pz               0.121261       0.101998

                         10       1    1s                0.123532       0.148506

                         11       1    1fx3              0.156013       0.022520
                         11       1    1fx2y             0.156013       0.050356
                         11       1    1fx2z             0.156013       0.050356
                         11       1    1fxy2             0.156013       0.050356
                         11       1    1fxyz             0.156013       0.087219
                         11       1    1fxz2             0.156013       0.050356
                         11       1    1fy3              0.156013       0.022520
                         11       1    1fy2z             0.156013       0.050356
                         11       1    1fyz2             0.156013       0.050356
                         11       1    1fz3              0.156013       0.022520

                         12       1    1hx5              0.161413       0.001978
                         12       1    1hx4y             0.161413       0.005933
                         12       1    1hx4z             0.161413       0.005933
                         12       1    1hx3y2            0.161413       0.009063
                         12       1    1hx3yz            0.161413       0.015697
                         12       1    1hx3z2            0.161413       0.009063
                         12       1    1hx2y3            0.161413       0.009063
                         12       1    1hx2y2z           0.161413       0.020265
                         12       1    1hx2yz2           0.161413       0.020265
                         12       1    1hx2z3            0.161413       0.009063
                         12       1    1hxy4             0.161413       0.005933
                         12       1    1hxy3z            0.161413       0.015697
                         12       1    1hxy2z2           0.161413       0.020265
                         12       1    1hxyz3            0.161413       0.015697
                         12       1    1hxz4             0.161413       0.005933
                         12       1    1hy5              0.161413       0.001978
                         12       1    1hy4z             0.161413       0.005933
                         12       1    1hy3z2            0.161413       0.009063
                         12       1    1hy2z3            0.161413       0.009063
                         12       1    1hyz4             0.161413       0.005933
                         12       1    1hz5              0.161413       0.001978

                         13       1    1dx2              0.173452       0.076731
                         13       1    1dxy              0.173452       0.132903
                         13       1    1dxz              0.173452       0.132903
                         13       1    1dy2              0.173452       0.076731
                         13       1    1dyz              0.173452       0.132903
                         13       1    1dz2              0.173452       0.076731

                         14       1    1gx4              0.196188       0.012627
                         14       1    1gx3y             0.196188       0.033407
                         14       1    1gx3z             0.196188       0.033407
                         14       1    1gx2y2            0.196188       0.043128
                         14       1    1gx2yz            0.196188       0.074700
                         14       1    1gx2z2            0.196188       0.043128
                         14       1    1gxy3             0.196188       0.033407
                         14       1    1gxy2z            0.196188       0.074700
                         14       1    1gxyz2            0.196188       0.074700
                         14       1    1gxz3             0.196188       0.033407
                         14       1    1gy4              0.196188       0.012627
                         14       1    1gy3z             0.196188       0.033407
                         14       1    1gy2z2            0.196188       0.043128
                         14       1    1gyz3             0.196188       0.033407
                         14       1    1gz4              0.196188       0.012627

                         15       1    1px               0.223276       0.218772
                         15       1    1py               0.223276       0.218772
                         15       1    1pz               0.223276       0.218772

                         16       1    1s                0.246901       0.249633

                         17       1    1fx3              0.259280       0.070621
                         17       1    1fx2y             0.259280       0.157914
                         17       1    1fx2z             0.259280       0.157914
                         17       1    1fxy2             0.259280       0.157914
                         17       1    1fxyz             0.259280       0.273515
                         17       1    1fxz2             0.259280       0.157914
                         17       1    1fy3              0.259280       0.070621
                         17       1    1fy2z             0.259280       0.157914
                         17       1    1fyz2             0.259280       0.157914
                         17       1    1fz3              0.259280       0.070621

                         18       1    1ix6              0.339630       0.007797
                         18       1    1ix5y             0.339630       0.025861
                         18       1    1ix5z             0.339630       0.025861
                         18       1    1ix4y2            0.339630       0.044793
                         18       1    1ix4yz            0.339630       0.077583
                         18       1    1ix4z2            0.339630       0.044793
                         18       1    1ix3y3            0.339630       0.052999
                         18       1    1ix3y2z           0.339630       0.118510
                         18       1    1ix3yz2           0.339630       0.118510
                         18       1    1ix3z3            0.339630       0.052999
                         18       1    1ix2y4            0.339630       0.044793
                         18       1    1ix2y3z           0.339630       0.118510
                         18       1    1ix2y2z2          0.339630       0.152996
                         18       1    1ix2yz3           0.339630       0.118510
                         18       1    1ix2z4            0.339630       0.044793
                         18       1    1ixy5             0.339630       0.025861
                         18       1    1ixy4z            0.339630       0.077583
                         18       1    1ixy3z2           0.339630       0.118510
                         18       1    1ixy2z3           0.339630       0.118510
                         18       1    1ixyz4            0.339630       0.077583
                         18       1    1ixz5             0.339630       0.025861
                         18       1    1iy6              0.339630       0.007797
                         18       1    1iy5z             0.339630       0.025861
                         18       1    1iy4z2            0.339630       0.044793
                         18       1    1iy3z3            0.339630       0.052999
                         18       1    1iy2z4            0.339630       0.044793
                         18       1    1iyz5             0.339630       0.025861
                         18       1    1iz6              0.339630       0.007797

                         19       1    1dx2              0.339644       0.248715
                         19       1    1dxy              0.339644       0.430786
                         19       1    1dxz              0.339644       0.430786
                         19       1    1dy2              0.339644       0.248715
                         19       1    1dyz              0.339644       0.430786
                         19       1    1dz2              0.339644       0.248715

                         20       1    1s                0.380123       0.345027

                         21       1    1fx3              0.415519       0.204072
                         21       1    1fx2y             0.415519       0.456319
                         21       1    1fx2z             0.415519       0.456319
                         21       1    1fxy2             0.415519       0.456319
                         21       1    1fxyz             0.415519       0.790368
                         21       1    1fxz2             0.415519       0.456319
                         21       1    1fy3              0.415519       0.204072
                         21       1    1fy2z             0.415519       0.456319
                         21       1    1fyz2             0.415519       0.456319
                         21       1    1fz3              0.415519       0.204072

                         22       1    1hx5              0.427119       0.046733
                         22       1    1hx4y             0.427119       0.140200
                         22       1    1hx4z             0.427119       0.140200
                         22       1    1hx3y2            0.427119       0.214160
                         22       1    1hx3yz            0.427119       0.370935
                         22       1    1hx3z2            0.427119       0.214160
                         22       1    1hx2y3            0.427119       0.214160
                         22       1    1hx2y2z           0.427119       0.478876
                         22       1    1hx2yz2           0.427119       0.478876
                         22       1    1hx2z3            0.427119       0.214160
                         22       1    1hxy4             0.427119       0.140200
                         22       1    1hxy3z            0.427119       0.370935
                         22       1    1hxy2z2           0.427119       0.478876
                         22       1    1hxyz3            0.427119       0.370935
                         22       1    1hxz4             0.427119       0.140200
                         22       1    1hy5              0.427119       0.046733
                         22       1    1hy4z             0.427119       0.140200
                         22       1    1hy3z2            0.427119       0.214160
                         22       1    1hy2z3            0.427119       0.214160
                         22       1    1hyz4             0.427119       0.140200
                         22       1    1hz5              0.427119       0.046733

                         23       1    1gx4              0.434910       0.112729
                         23       1    1gx3y             0.434910       0.298252
                         23       1    1gx3z             0.434910       0.298252
                         23       1    1gx2y2            0.434910       0.385041
                         23       1    1gx2yz            0.434910       0.666911
                         23       1    1gx2z2            0.434910       0.385041
                         23       1    1gxy3             0.434910       0.298252
                         23       1    1gxy2z            0.434910       0.666911
                         23       1    1gxyz2            0.434910       0.666911
                         23       1    1gxz3             0.434910       0.298252
                         23       1    1gy4              0.434910       0.112729
                         23       1    1gy3z             0.434910       0.298252
                         23       1    1gy2z2            0.434910       0.385041
                         23       1    1gyz3             0.434910       0.298252
                         23       1    1gz4              0.434910       0.112729

                         24       1    1px               0.520190       0.629713
                         24       1    1py               0.520190       0.629713
                         24       1    1pz               0.520190       0.629713

                         25       1    1hx5              0.598672       0.140026
                         25       1    1hx4y             0.598672       0.420078
                         25       1    1hx4z             0.598672       0.420078
                         25       1    1hx3y2            0.598672       0.641679
                         25       1    1hx3yz            0.598672       1.111421
                         25       1    1hx3z2            0.598672       0.641679
                         25       1    1hx2y3            0.598672       0.641679
                         25       1    1hx2y2z           0.598672       1.434838
                         25       1    1hx2yz2           0.598672       1.434838
                         25       1    1hx2z3            0.598672       0.641679
                         25       1    1hxy4             0.598672       0.420078
                         25       1    1hxy3z            0.598672       1.111421
                         25       1    1hxy2z2           0.598672       1.434838
                         25       1    1hxyz3            0.598672       1.111421
                         25       1    1hxz4             0.598672       0.420078
                         25       1    1hy5              0.598672       0.140026
                         25       1    1hy4z             0.598672       0.420078
                         25       1    1hy3z2            0.598672       0.641679
                         25       1    1hy2z3            0.598672       0.641679
                         25       1    1hyz4             0.598672       0.420078
                         25       1    1hz5              0.598672       0.140026

                         26       1    1ix6              0.598672       0.065334
                         26       1    1ix5y             0.598672       0.216687
                         26       1    1ix5z             0.598672       0.216687
                         26       1    1ix4y2            0.598672       0.375313
                         26       1    1ix4yz            0.598672       0.650061
                         26       1    1ix4z2            0.598672       0.375313
                         26       1    1ix3y3            0.598672       0.444076
                         26       1    1ix3y2z           0.598672       0.992984
                         26       1    1ix3yz2           0.598672       0.992984
                         26       1    1ix3z3            0.598672       0.444076
                         26       1    1ix2y4            0.598672       0.375313
                         26       1    1ix2y3z           0.598672       0.992984
                         26       1    1ix2y2z2          0.598672       1.281937
                         26       1    1ix2yz3           0.598672       0.992984
                         26       1    1ix2z4            0.598672       0.375313
                         26       1    1ixy5             0.598672       0.216687
                         26       1    1ixy4z            0.598672       0.650061
                         26       1    1ixy3z2           0.598672       0.992984
                         26       1    1ixy2z3           0.598672       0.992984
                         26       1    1ixyz4            0.598672       0.650061
                         26       1    1ixz5             0.598672       0.216687
                         26       1    1iy6              0.598672       0.065334
                         26       1    1iy5z             0.598672       0.216687
                         26       1    1iy4z2            0.598672       0.375313
                         26       1    1iy3z3            0.598672       0.444076
                         26       1    1iy2z4            0.598672       0.375313
                         26       1    1iyz5             0.598672       0.216687
                         26       1    1iz6              0.598672       0.065334

                         27       1    1s                0.705917       0.548877

                         28       1    1fx3              0.764640       0.804883
                         28       1    1fx2y             0.764640       1.799773
                         28       1    1fx2z             0.764640       1.799773
                         28       1    1fxy2             0.764640       1.799773
                         28       1    1fxyz             0.764640       3.117298
                         28       1    1fxz2             0.764640       1.799773
                         28       1    1fy3              0.764640       0.804883
                         28       1    1fy2z             0.764640       1.799773
                         28       1    1fyz2             0.764640       1.799773
                         28       1    1fz3              0.764640       0.804883

                         29       1    1dx2              0.771893       1.046247
                         29       1    1dxy              0.771893       1.812154
                         29       1    1dxz              0.771893       1.812154
                         29       1    1dy2              0.771893       1.046247
                         29       1    1dyz              0.771893       1.812154
                         29       1    1dz2              0.771893       1.046247

                         30       1    1gx4              0.856517       0.726874
                         30       1    1gx3y             0.856517       1.923129
                         30       1    1gx3z             0.856517       1.923129
                         30       1    1gx2y2            0.856517       2.482749
                         30       1    1gx2yz            0.856517       4.300247
                         30       1    1gx2z2            0.856517       2.482749
                         30       1    1gxy3             0.856517       1.923129
                         30       1    1gxy2z            0.856517       4.300247
                         30       1    1gxyz2            0.856517       4.300247
                         30       1    1gxz3             0.856517       1.923129
                         30       1    1gy4              0.856517       0.726874
                         30       1    1gy3z             0.856517       1.923129
                         30       1    1gy2z2            0.856517       2.482749
                         30       1    1gyz3             0.856517       1.923129
                         30       1    1gz4              0.856517       0.726874

                         31       1    1px               1.029950       1.478973
                         31       1    1py               1.029950       1.478973
                         31       1    1pz               1.029950       1.478973

                         32       1    1hx5              1.185280       1.289028
                         32       1    1hx4y             1.185280       3.867083
                         32       1    1hx4z             1.185280       3.867083
                         32       1    1hx3y2            1.185280       5.907067
                         32       1    1hx3yz            1.185280      10.231341
                         32       1    1hx3z2            1.185280       5.907067
                         32       1    1hx2y3            1.185280       5.907067
                         32       1    1hx2y2z           1.185280      13.208604
                         32       1    1hx2yz2           1.185280      13.208604
                         32       1    1hx2z3            1.185280       5.907067
                         32       1    1hxy4             1.185280       3.867083
                         32       1    1hxy3z            1.185280      10.231341
                         32       1    1hxy2z2           1.185280      13.208604
                         32       1    1hxyz3            1.185280      10.231341
                         32       1    1hxz4             1.185280       3.867083
                         32       1    1hy5              1.185280       1.289028
                         32       1    1hy4z             1.185280       3.867083
                         32       1    1hy3z2            1.185280       5.907067
                         32       1    1hy2z3            1.185280       5.907067
                         32       1    1hyz4             1.185280       3.867083
                         32       1    1hz5              1.185280       1.289028

                         33       1    1fx3              1.349290       2.888626
                         33       1    1fx2y             1.349290       6.459165
                         33       1    1fx2z             1.349290       6.459165
                         33       1    1fxy2             1.349290       6.459165
                         33       1    1fxyz             1.349290      11.187602
                         33       1    1fxz2             1.349290       6.459165
                         33       1    1fy3              1.349290       2.888626
                         33       1    1fy2z             1.349290       6.459165
                         33       1    1fyz2             1.349290       6.459165
                         33       1    1fz3              1.349290       2.888626

                         34       1    1dx2              1.351630       2.788757
                         34       1    1dxy              1.351630       4.830269
                         34       1    1dxz              1.351630       4.830269
                         34       1    1dy2              1.351630       2.788757
                         34       1    1dyz              1.351630       4.830269
                         34       1    1dz2              1.351630       2.788757

                         35       1    1s                1.423940       0.929028

                         36       1    1gx4              1.819640       5.772919
                         36       1    1gx3y             1.819640      15.273709
                         36       1    1gx3z             1.819640      15.273709
                         36       1    1gx2y2            1.819640      19.718273
                         36       1    1gx2yz            1.819640      34.153051
                         36       1    1gx2z2            1.819640      19.718273
                         36       1    1gxy3             1.819640      15.273709
                         36       1    1gxy2z            1.819640      34.153051
                         36       1    1gxyz2            1.819640      34.153051
                         36       1    1gxz3             1.819640      15.273709
                         36       1    1gy4              1.819640       5.772919
                         36       1    1gy3z             1.819640      15.273709
                         36       1    1gy2z2            1.819640      19.718273
                         36       1    1gyz3             1.819640      15.273709
                         36       1    1gz4              1.819640       5.772919

                         37       1    1px               2.347260       4.141347
                         37       1    1py               2.347260       4.141347
                         37       1    1pz               2.347260       4.141347

                         38       1    1dx2              2.681530       9.248666
                         38       1    1dxy              2.681530      16.019160
                         38       1    1dxz              2.681530      16.019160
                         38       1    1dy2              2.681530       9.248666
                         38       1    1dyz              2.681530      16.019160
                         38       1    1dz2              2.681530       9.248666

                         39       1    1s                2.891360       1.580290

                         40       1    1fx3              3.229490      20.582865
                         40       1    1fx2y             3.229490      46.024685
                         40       1    1fx2z             3.229490      46.024685
                         40       1    1fxy2             3.229490      46.024685
                         40       1    1fxyz             3.229490      79.717093
                         40       1    1fxz2             3.229490      46.024685
                         40       1    1fy3              3.229490      20.582865
                         40       1    1fy2z             3.229490      46.024685
                         40       1    1fyz2             3.229490      46.024685
                         40       1    1fz3              3.229490      20.582865

                         41       1    1px               6.081490      13.612960
                         41       1    1py               6.081490      13.612960
                         41       1    1pz               6.081490      13.612960

                         42       1    1dx2              6.963580      49.132227
                         42       1    1dxy              6.963580      85.099514
                         42       1    1dxz              6.963580      85.099514
                         42       1    1dy2              6.963580      49.132227
                         42       1    1dyz              6.963580      85.099514
                         42       1    1dz2              6.963580      49.132227

                         43       1    1s                7.795370       3.324969

                         44       1    1px              20.093900      60.641563
                         44       1    1py              20.093900      60.641563
                         44       1    1pz              20.093900      60.641563

                         45       1    1s               24.228600       7.783167

                         46       1    1s              115.553000      25.118634

       Atomic covalent radius [Angstrom]:                                  1.230

       Atomic van der Waals radius [Angstrom]:                             1.820

     The atoms of this atomic kind are PAW atoms (GAPW):
       Hard Gaussian function radius:                                      1.512
       Rho0 radius:                                                        1.512
       Maximum GTO radius used for PAW projector construction:            24.566

     GAPW Soft Basis Set                                        aug-cc-pVQZ_soft

       Number of orbital shell sets:                                          10
       Number of orbital shells:                                              20
       Number of primitive Cartesian functions:                               22
       Number of Cartesian basis functions:                                  105
       Number of spherical basis functions:                                   80
       Norm type:                                                              2

       Normalised Cartesian orbitals:

                        Set   Shell   Orbital            Exponent    Coefficient

                          1       1    1s                0.006400       0.016127

                          2       1    1px               0.007500       0.003146
                          2       1    1py               0.007500       0.003146
                          2       1    1pz               0.007500       0.003146

                          3       1    1px               1.370000       0.000000
                                                         0.367200       0.000000
                                                         0.119200       0.099836
                                                         0.044740       0.000000
                                                         0.017950       0.000000
                          3       1    1py               1.370000       0.000000
                                                         0.367200       0.000000
                                                         0.119200       0.099836
                                                         0.044740       0.000000
                                                         0.017950       0.000000
                          3       1    1pz               1.370000       0.000000
                                                         0.367200       0.000000
                                                         0.119200       0.099836
                                                         0.044740       0.000000
                                                         0.017950       0.000000

                          3       2    2px               1.370000       0.040809
                                                         0.367200       0.032230
                                                         0.119200       0.027364
                                                         0.044740       0.015237
                                                         0.017950       0.002664
                          3       2    2py               1.370000       0.040809
                                                         0.367200       0.032230
                                                         0.119200       0.027364
                                                         0.044740       0.015237
                                                         0.017950       0.002664
                          3       2    2pz               1.370000       0.040809
                                                         0.367200       0.032230
                                                         0.119200       0.027364
                                                         0.044740       0.015237
                                                         0.017950       0.002664

                          3       3    3px               1.370000       0.000000
                                                         0.367200       0.000000
                                                         0.119200       0.000000
                                                         0.044740       0.029330
                                                         0.017950       0.000000
                          3       3    3py               1.370000       0.000000
                                                         0.367200       0.000000
                                                         0.119200       0.000000
                                                         0.044740       0.029330
                                                         0.017950       0.000000
                          3       3    3pz               1.370000       0.000000
                                                         0.367200       0.000000
                                                         0.119200       0.000000
                                                         0.044740       0.029330
                                                         0.017950       0.000000

                          3       4    4px               1.370000       0.000000
                                                         0.367200       0.000000
                                                         0.119200       0.000000
                                                         0.044740       0.000000
                                                         0.017950       0.009365
                          3       4    4py               1.370000       0.000000
                                                         0.367200       0.000000
                                                         0.119200       0.000000
                                                         0.044740       0.000000
                                                         0.017950       0.009365
                          3       4    4pz               1.370000       0.000000
                                                         0.367200       0.000000
                                                         0.119200       0.000000
                                                         0.044740       0.000000
                                                         0.017950       0.009365

                          4       1    1s                3.003000       0.511857
                                                         1.212000       0.324312
                                                         0.493000       0.082572
                                                         0.095150       0.001221
                                                         0.047910      -0.000394
                                                         0.022200       0.000070

                          4       2    2s                3.003000       0.000000
                                                         1.212000       0.000000
                                                         0.493000       0.000000
                                                         0.095150       0.122100
                                                         0.047910       0.000000
                                                         0.022200       0.000000

                          4       3    3s                3.003000       0.000000
                                                         1.212000       0.000000
                                                         0.493000       0.000000
                                                         0.095150       0.000000
                                                         0.047910       0.072984
                                                         0.022200       0.000000

                          4       4    4s                3.003000      -0.093256
                                                         1.212000      -0.077300
                                                         0.493000      -0.050776
                                                         0.095150       0.033774
                                                         0.047910       0.040108
                                                         0.022200       0.011370

                          4       5    5s                3.003000       0.000000
                                                         1.212000       0.000000
                                                         0.493000       0.000000
                                                         0.095150       0.000000
                                                         0.047910       0.000000
                                                         0.022200       0.040990

                          5       1    1dx2              0.027200       0.002999
                          5       1    1dxy              0.027200       0.005194
                          5       1    1dxz              0.027200       0.005194
                          5       1    1dy2              0.027200       0.002999
                          5       1    1dyz              0.027200       0.005194
                          5       1    1dz2              0.027200       0.002999

                          6       1    1fx3              0.050400       0.001772
                          6       1    1fx2y             0.050400       0.003962
                          6       1    1fx2z             0.050400       0.003962
                          6       1    1fxy2             0.050400       0.003962
                          6       1    1fxyz             0.050400       0.006862
                          6       1    1fxz2             0.050400       0.003962
                          6       1    1fy3              0.050400       0.001772
                          6       1    1fy2z             0.050400       0.003962
                          6       1    1fyz2             0.050400       0.003962
                          6       1    1fz3              0.050400       0.001772

                          7       1    1dx2              0.335200       0.243048
                                                         0.148200       0.000000
                                                         0.065600       0.000000
                          7       1    1dxy              0.335200       0.420971
                                                         0.148200       0.000000
                                                         0.065600       0.000000
                          7       1    1dxz              0.335200       0.420971
                                                         0.148200       0.000000
                                                         0.065600       0.000000
[...]
 Gaussian Basis Sets.
 https://doi.org/10.1021/ct900494g

 M. Guidon, F. Schiffmann, J. Hutter, J. VandeVondele.
 J. Chem. Phys. 128, 214104 (2008).
 Ab initio molecular dynamics using hybrid density functionals.
 https://doi.org/10.1063/1.2931945

 L. Genovese, T. Deutsch, S. Goedecker.
 J. Chem. Phys. 127, 054704 (2007).
 Efficient and accurate three-dimensional Poisson solver for surface problems.
 https://doi.org/10.1063/1.2754685

 J. VandeVondele, J. Hutter.
 J. Chem. Phys. 127, 114105 (2007).
 Gaussian basis sets for accurate calculations on molecular systems in gas and 
 condensed phases.
 https://doi.org/10.1063/1.2770708

 L. Genovese, T. Deutsch, A. Neelov, S. Goedecker, G. Beylkin.
 J. Chem. Phys. 125, 074105 (2006).
 Efficient solution of Poisson's equation with free boundary conditions.
 https://doi.org/10.1063/1.2335442

 M. Frigo, S. G. Johnson.
 Proc. IEEE 93, 216-231 (2005).
 The design and implementation of FFTW3.
 https://doi.org/10.1109/JPROC.2004.840301

 M. Krack, M. Parrinello.
 Phys. Chem. Chem. Phys. 2, 2105-2112 (2000).
 All-electron ab-initio molecular dynamics.
 https://doi.org/10.1039/b001167n

 G. Lippert, J. Hutter, M. Parrinello.
 Theor. Chem. Acc. 103, 124-140 (1999).
 The Gaussian and augmented-plane-wave density functional method for ab initio 
 molecular dynamics simulations.
 https://doi.org/10.1007/s002140050523

 J. P. Perdew, K. Burke, M. Ernzerhof.
 Phys. Rev. Lett. 77, 3865-3868 (1996).
 Generalized gradient approximation made simple.
 https://doi.org/10.1103/PhysRevLett.77.3865


 -------------------------------------------------------------------------------
 -                                                                             -
 -                                T I M I N G                                  -
 -                                                                             -
 -------------------------------------------------------------------------------
 SUBROUTINE                       CALLS  ASD         SELF TIME        TOTAL TIME
                                MAXIMUM       AVERAGE  MAXIMUM  AVERAGE  MAXIMUM
 CP2K                                 1  1.0    0.034    0.057  300.003  300.004
 qs_energies                          1  2.0    0.001    0.001  298.845  299.091
 scf_env_do_scf                       1  3.0    0.000    0.000  286.639  286.644
 scf_env_do_scf_inner_loop           79  4.0    0.002    0.005  286.639  286.644
 qs_ks_build_kohn_sham_matrix        80  7.0    0.012    0.014  229.558  229.596
 qs_ks_update_qs_env                 79  5.0    0.001    0.001  227.928  227.965
 rebuild_ks_matrix                   79  6.0    0.000    0.000  227.918  227.956
 fft_wrap_pw1pw2                   1671  9.9    0.038    0.049   95.419   97.626
 fft_wrap_pw1pw2_250               1191 11.1    4.090    4.516   92.290   94.159
 fft3d_ps                          1671 11.9   37.506   41.518   76.949   79.046
 pw_poisson_solve                    80  8.0    1.421    1.580   68.892   68.919
 qs_vxc_create                       80  8.0    0.001    0.001   57.385   57.389
 xc_vxc_pw_create                    79  9.0    0.989    1.141   57.384   57.388
 hfx_ks_matrix                       80  8.0    0.003    0.003   53.841   53.924
 integrate_four_center               80  9.0    1.729    3.685   53.837   53.919
 mp_sync                            845  9.5   43.731   47.326   43.731   47.326
 ps_wavelet_solve                    80  9.0   35.925   40.241   45.754   46.088
 integrate_four_center_main          80 10.0    0.852   40.014    1.854   44.674
 integrate_four_center_bin         6283 11.0    1.001   44.290    1.001   44.290
 xc_pw_derive                       474 11.0    0.005    0.006   41.825   43.393
 mp_alltoall_d54                     80 10.0    6.321   35.527    6.321   35.527
 mp_alltoall_z22v                  1671 13.9   30.404   34.397   30.404   34.397
 xc_pw_divergence                    79 10.0    0.003    0.003   28.714   30.312
 qs_rho_update_rho_low               80  5.0    0.001    0.001   29.939   29.941
 calculate_rho_elec                  80  6.0    0.782    0.833   29.784   29.786
 xc_rho_set_and_dset_create          79 10.0    0.711    0.955   27.097   29.301
 gspace_mixing                       78  5.0    0.762    0.812   27.759   27.760
 yz_to_x                            797 12.8    2.636    3.280   18.876   22.343
 density_rs2pw                       80  7.0    0.005    0.006   20.791   21.565
 x_to_yz                            874 13.1    6.376    6.803   20.540   21.252
 broyden_mixing                      78  6.0   20.630   20.985   20.959   21.045
 sum_up_and_integrate                80  8.0    0.001    0.002   18.083   18.192
 integrate_v_rspace                  80  9.0    0.002    0.003   17.851   18.050
 potential_pw2rs                     80 10.0    0.041    0.047   15.650   15.772
 prepare_gapw_den                    80  8.0    0.001    0.002   14.611   14.803
 transfer_pw2rs                     401 10.6    0.006    0.008   11.293   11.563
 put_rho0_on_grid                    80  9.0    0.787    0.847   11.220   11.412
 mp2_main                             1  3.0    0.000    0.000   11.111   11.357
 transfer_rs2pw                     401  8.4    0.009    0.013    9.848   10.468
 mp_waitany                       10604 11.5    8.757    9.784    8.757    9.784
 mp2_gpw_main                         1  4.0    0.000    0.000    9.268    9.278
 mp_alltoall_d11v                  1616  9.5    4.502    8.935    4.502    8.935
 rpa_ri_compute_en                    1  5.0    0.000    0.000    8.473    8.473
 grid_collocate_task_list            80  7.0    7.810    8.464    7.810    8.464
 rpa_num_int                          1  6.0    0.001    0.001    8.418    8.420
 compute_GW_self_energy             100  7.0    0.001    0.002    7.739    7.795
 xc_functional_eval                 237 10.9    0.001    0.002    5.852    7.740
 pbe_lda_eval                       237 11.9    5.851    7.739    5.851    7.739
 transfer_pw2rs_250                 161 11.0    2.387    2.630    7.245    7.640
 compute_GW_self_energy_deep        100  8.0    4.648    4.700    7.338    7.394
 transfer_rs2pw_250                 161 10.0    2.439    2.703    6.642    7.286
 mp_sum_d                          3101  6.6    5.890    7.060    5.890    7.060
 mp_alltoall_d45                     81 10.0    3.277    6.356    3.277    6.356
 pw_scatter_p                       874 12.1    6.255    6.353    6.255    6.353
 pw_gather_p                        797 11.8    5.249    5.956    5.249    5.956
 calc_screening_functions             1 10.0    4.964    5.258    5.336    5.632
 integrate_vhg0_rspace               80  8.0    0.212    0.230    5.252    5.382
 pw_derive                          714 11.3    4.602    4.917    4.602    4.917
 calculate_vxc_atom                  80  8.0    0.023    0.349    4.139    4.140
 gaVxcgb_GC                          79  9.0    0.154    3.724    0.154    3.724
 calculate_rho_atom                  80  9.0    0.791    3.066    0.791    3.066
 cp2k_distribution_to_z_slices       80  9.0    1.538    1.702    2.804    2.990
 parallel_gemm_fm                   378  8.4    0.001    0.001    2.944    2.955
 parallel_gemm_fm_gemm              378  9.4    0.001    0.001    2.944    2.955
 cp_fm_gemm                         378 10.4    2.943    2.954    2.943    2.954
 pw_copy                           1195 10.6    2.722    2.898    2.722    2.898
 fft_wrap_pw1pw2_90                 160 10.5    0.117    0.146    2.505    2.855
 mp_sum_dv                         5917 10.4    2.368    2.580    2.368    2.580
 pw_poisson_set                      81  8.9    0.003    0.003    2.543    2.571
 rs_gather_matrices                  80 10.0    0.004    0.068    1.324    2.224
 transfer_pw2rs_90                   80 12.0    0.458    0.541    1.785    2.205
 grid_integrate_task_list            80 10.0    0.874    2.146    0.874    2.146
 rs_grid_zero                       402 11.2    2.031    2.145    2.031    2.145
 mp_waitall_1                     25918 12.1    1.605    2.138    1.605    2.138
 pw_axpy                            795  9.3    1.785    1.930    1.785    1.930
 transfer_pw2rs_30                   80 12.0    1.087    1.169    1.676    1.810
 pw_copy_to_array                   797 11.8    1.633    1.807    1.633    1.807
 transfer_rs2pw_90                   80  9.0    0.411    0.459    1.495    1.687
 compute_vec_Sigma_x_minus_vxc_       1  4.0    0.000    0.000    1.645    1.645
 qs_scf_new_mos                      79  5.0    0.001    0.001    1.452    1.462
 mp_sum_dm                          564  7.6    0.872    1.432    0.872    1.432
 pw_integral_ab_c1d_c1d_gs           80  9.0    1.175    1.185    1.267    1.388
 transfer_rs2pw_30                   80  9.0    0.625    0.659    1.293    1.314
 pw_copy_from_array                 874 12.1    1.064    1.309    1.064    1.309
 pw_poisson_rebuild                  80  9.0    0.000    0.000    1.158    1.184
 ps_wavelet_create                    1 10.0    0.000    0.000    1.158    1.184
 RS_z_slice_distribution              1 11.0    0.996    1.084    1.158    1.184
 cp_fm_syevd                         85  7.0    0.001    0.001    1.138    1.141
 eigensolver_symm                    80  6.0    0.003    0.003    1.084    1.086
 cp_fm_redistribute_end              85  8.0    0.556    1.073    0.560    1.077
 cp_fm_syevd_base                    85  8.0    0.513    1.030    0.513    1.030
 mp_sendrecv_dv                    7520 10.0    0.948    0.989    0.948    0.989
 mp_isend_dv                      10390 11.9    0.553    0.922    0.553    0.922
 pw_zero                            476 10.3    0.764    0.837    0.764    0.837
 mp2_ri_gpw_compute_in                1  5.0    0.001    0.001    0.780    0.780
 mp2_ri_gpw_compute_in_loop           1  6.0    0.000    0.000    0.765    0.765
 mp_irecv_dm3                      2892 11.5    0.439    0.757    0.439    0.757
 Vh_1c_gg_integrals                  80  8.0    0.023    0.437    0.497    0.669
 init_scf_run                         1  3.0    0.000    0.000    0.650    0.650
 contract_B_L                         4  7.0    0.004    0.004    0.437    0.641
 scf_env_initial_rho_setup            1  4.0    0.000    0.000    0.631    0.631
 transfer_pw2rs_10                   80 12.0    0.272    0.292    0.581    0.621
 powell_optimize                 247346 11.0    0.606    0.618    0.606    0.618
 mp_isendrecv_dv                  15040 12.0    0.327    0.598    0.327    0.598
 mp_isend_dm3                      2892 11.5    0.280    0.565    0.280    0.565
 mp2_eri_3c_integrate                 1  7.0    0.002    0.002    0.258    0.543
 integrate_set_3c                  1500  8.0    0.235    0.500    0.256    0.540
 mp_cart_create                     359 10.5    0.317    0.522    0.317    0.522
 dbt_pgrid_create_expert             80 10.7    0.000    0.000    0.299    0.503
 fft_wrap_pw1pw2_30                 160 10.5    0.019    0.023    0.472    0.486
 qs_init_subsys                       1  2.0    0.004    0.004    0.469    0.470
 rpa_num_int_RPA_matrix_operati     100  7.0    0.001    0.003    0.458    0.458
 mp_sum_l                          1152  6.6    0.325    0.454    0.325    0.454
 qs_env_setup                         1  3.0    0.000    0.000    0.443    0.448
 qs_env_rebuild_pw_env                2  3.5    0.000    0.000    0.442    0.446
 pw_env_rebuild                       1  5.0    0.001    0.001    0.441    0.446
 integrate_four_center_load          80 10.0    0.000    0.001    0.304    0.437
 hfx_load_balance                     1 11.0    0.000    0.000    0.304    0.437
 hfx_load_balance_range               1 12.0    0.000    0.001    0.298    0.431
 transfer_rs2pw_10                   80  9.0    0.130    0.141    0.410    0.430
 scale_and_distribute               160 10.0    0.394    0.425    0.394    0.425
 pw_grid_setup                        4  6.0    0.000    0.000    0.413    0.418
 pw_grid_setup_internal               4  7.0    0.010    0.013    0.413    0.418
 mp_sum_i                            19  9.5    0.247    0.406    0.247    0.406
 restraint_control                    1  2.0    0.000    0.000    0.246    0.405
 mp2_main_alloc_hfx                   1  4.0    0.159    0.405    0.159    0.405
 cp_fm_cholesky_invert              101  8.0    0.363    0.386    0.363    0.386
 calc_pair_dist_radii                 1 10.0    0.139    0.140    0.373    0.379
 mp_max_i                           553  3.1    0.237    0.372    0.237    0.372
 integrate_four_center_getP          80 10.0    0.009    0.012    0.353    0.370
 calculate_rho0_atom                 80  9.0    0.338    0.352    0.338    0.352
 create_qs_kind_set                   1  2.0    0.000    0.000    0.348    0.349
 read_qs_kind                         1  3.0    0.193    0.199    0.348    0.348
 integrate_four_center_dist_KS       80 10.0    0.011    0.014    0.327    0.329
 qs_energies_init_hamiltonians        1  3.0    0.000    0.000    0.329    0.329
 build_core_hamiltonian_matrix        1  4.0    0.000    0.000    0.323    0.323
 pw_grid_sort                         4  8.0    0.222    0.225    0.317    0.321
 overlap_condnum                      1  5.0    0.000    0.001    0.319    0.321
 update_ks_atom                      80  8.0    0.011    0.048    0.201    0.303
 mp_bcast_dm                        320  9.0    0.191    0.293    0.191    0.293
 arnoldi_conjugate_gradient           5  6.0    0.007    0.008    0.271    0.271
 pw_scale                           317  9.5    0.207    0.263    0.207    0.263
 calc_mat_Q                         100  8.0    0.000    0.000    0.253    0.260
 contract_S_to_Q                    100  9.0    0.001    0.001    0.242    0.249
 offload_free_buffer                 88  8.5    0.096    0.234    0.096    0.234
 calculate_dm_sparse                 79  6.0    0.000    0.001    0.217    0.229
 cp_dbcsr_plus_fm_fm_t               79  7.0    0.001    0.001    0.216    0.227
 dbcsr_multiply_generic             172  8.1    0.007    0.007    0.192    0.206
 cp_fm_cholesky_decompose           102  9.0    0.195    0.199    0.195    0.199
 compute_Erpa_by_freq_int           100  8.0    0.001    0.002    0.193    0.194
 dbcsr_sym_matrix_vector_mult      1024  7.0    0.016    0.017    0.117    0.173
 copy_dbcsr_to_fm                   134  6.7    0.002    0.002    0.160    0.165
 parser_read_line                 40290  4.0    0.014    0.015    0.155    0.158
 calculate_rho_atom_coeff            80  6.0    0.015    0.052    0.154    0.155
 start_bse_calculation                1  7.0    0.000    0.000    0.155    0.155
 mixing_init                          1  5.0    0.146    0.153    0.153    0.153
 dbcsr_complete_redistribute        296  8.5    0.015    0.022    0.144    0.147
 parser_read_line_low                45  5.0    0.014    0.064    0.141    0.145
 broadcast_input_information         45  6.0    0.035    0.037    0.127    0.136
 fft_wrap_pw1pw2_10                 160 10.5    0.004    0.005    0.114    0.135
 dbt_total                            8  8.0    0.000    0.000    0.120    0.120
 rs_scatter_matrices                 80  7.0    0.001    0.007    0.110    0.116
 scf_post_calculation_gpw             1  3.0    0.000    0.000    0.115    0.116
 write_available_results              1  4.0    0.000    0.000    0.115    0.116
 write_mo_free_results                1  5.0    0.013    0.014    0.115    0.116
 xc_pw_smooth                        79 10.0    0.000    0.000    0.083    0.115
 dbt_contract                         4  9.0    0.001    0.001    0.105    0.105
 sort_shells                          4  9.0    0.095    0.097    0.095    0.097
 make_m2s                           344  9.1    0.004    0.005    0.092    0.095
 dbcsr_desymmetrize_deep            136  7.7    0.004    0.006    0.090    0.094
 dbcsr_add_d                       1603  7.1    0.002    0.002    0.013    0.094
 dbcsr_add_anytype                 1603  8.1    0.002    0.012    0.011    0.092
 dbcsr_finalize                    3170 10.6    0.008    0.026    0.031    0.083
 copy_fm_to_dbcsr                   162  8.1    0.001    0.001    0.077    0.081
 cp_fm_to_fm_submat_general         112 10.1    0.068    0.080    0.068    0.080
 multiply_cannon                    172  9.1    0.012    0.012    0.066    0.077
 mp_irecv_dv                      10442 11.9    0.040    0.076    0.040    0.076
 diagonalize_C                        1  8.0    0.000    0.000    0.074    0.074
 dbt_tas_multiply                     8 11.5    0.000    0.000    0.074    0.074
 dbt_tas_total                        8 12.5    0.001    0.002    0.074    0.074
 cp_fm_redistribute_start            85  8.0    0.050    0.055    0.064    0.072
 cp_fm_power                          2  7.5    0.001    0.002    0.071    0.072
 mp_alltoall_i22                    432  9.2    0.057    0.065    0.057    0.065
 dbcsr_rep_row_to_rep_col_vec      1024  8.0    0.005    0.007    0.019    0.057
 mp_bcast_i_src                     180  7.0    0.047    0.057    0.047    0.057
 make_images                        344 10.1    0.011    0.012    0.054    0.057
 dbcsr_col_vec_to_rep_row          1024  8.0    0.007    0.009    0.026    0.056
 create_integ_mat                     4  6.0    0.001    0.001    0.054    0.056
 cp_fm_uplo_to_full                 104  8.0    0.025    0.056    0.025    0.056
 array2fm                             4  7.0    0.000    0.000    0.051    0.054
 pw_grid_assign                       4  8.0    0.050    0.052    0.051    0.053
 vxc_of_r_new                       158  9.0    0.000    0.008    0.002    0.051
 hirshfeld_integration                1  6.0    0.001    0.004    0.050    0.050
 multiply_cannon_loop               172 10.1    0.007    0.007    0.040    0.050
 create_hermitian_form_of_ABBA        1  8.0    0.000    0.000    0.050    0.050
 mp_bcast_am_src                     45  7.0    0.040    0.042    0.044    0.049
 calculate_hirshfeld_normalizat       1  6.0    0.001    0.004    0.046    0.047
 hybrid_alltoall_any                480 11.1    0.009    0.010    0.039    0.045
 mp_bcast_dv                       1109  9.0    0.013    0.043    0.013    0.043
 rs_grid_create                      86  8.8    0.001    0.001    0.016    0.042
 dbcsr_merge_all                   2376 11.4    0.012    0.032    0.017    0.042
 offload_create_buffer               88  9.7    0.015    0.041    0.015    0.041
 abc_contract                      1500  9.0    0.021    0.041    0.021    0.041
 mp_alltoall_i11v                  1024  9.4    0.040    0.041    0.040    0.041
 cp_fm_symm                          80  7.0    0.034    0.037    0.034    0.037
 dbt_copy                            12 10.2    0.000    0.000    0.034    0.036
 dbcsr_iterator_start             15163  9.0    0.020    0.029    0.023    0.034
 dbcsr_copy                        4874  7.7    0.016    0.018    0.028    0.031
 set_mo_occupation_2                 79  6.0    0.000    0.000    0.030    0.031
 set_mo_occupation_1                 80  7.0    0.030    0.031    0.030    0.031
 dbt_tas_estimate_result_nze          4 12.0    0.001    0.001    0.030    0.030
 mp_comm_split_direct                48 14.5    0.019    0.030    0.019    0.030
 -------------------------------------------------------------------------------

 The number of warnings for this run is : 1
 
 -------------------------------------------------------------------------------
  **** **** ******  **  PROGRAM ENDED AT                 2025-03-18 22:52:49.541
 ***** ** ***  *** **   PROGRAM RAN ON                              i01r07c02s06
 **    ****   ******    PROGRAM RAN BY                                   di38fab
 ***** **    ** ** **   PROGRAM PROCESS ID                               2700334
  **** **  *******  **  PROGRAM STOPPED IN /hppfs/scratch/04/di38fab/05_MOL/W4-1
                                           1+ALK/li2/aug-cc-pVQZ/GW+BSE
