 DBCSR| CPU Multiplication driver                                           BLAS (U)
 DBCSR| Multrec recursion limit                                              512 (U)
 DBCSR| Multiplication stack size                                           1000 (D)
 DBCSR| Maximum elements for images                                    UNLIMITED (U)
 DBCSR| Multiplicative factor virtual images                                   1 (U)
 DBCSR| Use multiplication densification                                       T (D)
 DBCSR| Multiplication size stacks                                             3 (U)
 DBCSR| Use memory pool for CPU allocation                                     F (U)
 DBCSR| Number of 3D layers                                               SINGLE (U)
 DBCSR| Use MPI memory allocation                                              F (U)
 DBCSR| Use RMA algorithm                                                      F (U)
 DBCSR| Use Communication thread                                               T (U)
 DBCSR| Communication thread load                                             75 (D)
 DBCSR| MPI: My process id                                                     0
 DBCSR| MPI: Number of processes                                              24
 DBCSR| OMP: Current number of threads                                         4
 DBCSR| OMP: Max number of threads                                             4
 DBCSR| Split modifier for TAS multiplication algorithm                  1.0E+00 (U)


  **** **** ******  **  PROGRAM STARTED AT               2025-03-03 07:38:21.944
 ***** ** ***  *** **   PROGRAM STARTED ON                          i05r03c03s11
 **    ****   ******    PROGRAM STARTED BY                               di38fab
 ***** **    ** ** **   PROGRAM PROCESS ID                                255748
  **** **  *******  **  PROGRAM STARTED IN /hppfs/scratch/04/di38fab/05_MOL/W4-1
                                           1+ALK/o2/DZVP

 CP2K| version string:                 CP2K version 2025.1 (Development Version)
 CP2K| source code revision number:                                  git:47877ba
 CP2K| cp2kflags: omp libint fftw3 libxc parallel scalapack max_contr=4         
 CP2K| is freely available from                            https://www.cp2k.org/
 CP2K| Program compiled at                          Thu Feb 20 16:00:34 CET 2025
 CP2K| Program compiled on                                               login04
 CP2K| Program compiled for                                        Supermuc-foss
 CP2K| Data directory path          /hppfs/work/pn36zo/di38fab/newcp2k/cp2k/data
 CP2K| Input file name                                                    GW.inp

 GLOBAL| Force Environment number                                              1
 GLOBAL| Basis set file name            /hppfs/scratch/04/di38fab/04_TMD/BASIS_A
 GLOBAL| Potential file name            /hppfs/work/pn36zo/di38fab/cp2k/data/ALL
 GLOBAL| MM Potential file name                                     MM_POTENTIAL
 GLOBAL| Coordinate file name                                      __STD_INPUT__
 GLOBAL| Method name                                                        CP2K
 GLOBAL| Project name                                                       MoS2
 GLOBAL| Run type                                                         ENERGY
 GLOBAL| FFT library                                                       FFTW3
 GLOBAL| Diagonalization library                                       ScaLAPACK
 GLOBAL| DGEMM library                                                      BLAS
 GLOBAL| Orthonormality check for eigenvectors                          DISABLED
 GLOBAL| Matrix multiplication library                                 ScaLAPACK
 GLOBAL| All-to-all communication in single precision                          F
 GLOBAL| FFTs using library dependent lengths                                  F
 GLOBAL| Grid backend                                                       AUTO
 GLOBAL| Global print level                                               MEDIUM
 GLOBAL| MPI I/O enabled                                                       T
 GLOBAL| Total number of message passing processes                            24
 GLOBAL| Number of threads for this process                                    4
 GLOBAL| This output is from process                                           0
 GLOBAL| OpenMP stack size per thread (OMP_STACKSIZE)                    default
 GLOBAL| CPU model name             Intel(R) Xeon(R) Platinum 8174 CPU @ 3.10GHz

 MEMORY| system memory details [Kb]
 MEMORY|                        rank 0           min           max       average
 MEMORY| MemTotal             98436660      98436660      98436664      98436662
 MEMORY| MemFree              83824472      83824472      83956904      83890688
 MEMORY| Buffers                     0             0             0             0
 MEMORY| Cached                2384872       2384872       2392824       2388848
 MEMORY| Slab                  1233928       1223700       1233928       1228814
 MEMORY| SReclaimable           272588        268808        272588        270698
 MEMORY| MemLikelyFree        86481932      86481932      86618536      86550234


 *** Fundamental physical constants (SI units) ***

 *** Literature: B. J. Mohr and B. N. Taylor,
 ***             CODATA recommended values of the fundamental physical
 ***             constants: 2006, Web Version 5.1
 ***             http://physics.nist.gov/constants

 Speed of light in vacuum [m/s]                             2.99792458000000E+08
 Magnetic constant or permeability of vacuum [N/A**2]       1.25663706143592E-06
 Electric constant or permittivity of vacuum [F/m]          8.85418781762039E-12
 Planck constant (h) [J*s]                                  6.62606896000000E-34
 Planck constant (h-bar) [J*s]                              1.05457162825177E-34
 Elementary charge [C]                                      1.60217648700000E-19
 Electron mass [kg]                                         9.10938215000000E-31
 Electron g factor [ ]                                     -2.00231930436220E+00
 Proton mass [kg]                                           1.67262163700000E-27
 Fine-structure constant                                    7.29735253760000E-03
 Rydberg constant [1/m]                                     1.09737315685270E+07
 Avogadro constant [1/mol]                                  6.02214179000000E+23
 Boltzmann constant [J/K]                                   1.38065040000000E-23
 Atomic mass unit [kg]                                      1.66053878200000E-27
 Bohr radius [m]                                            5.29177208590000E-11

 *** Conversion factors ***

 [u] -> [a.u.]                                              1.82288848426455E+03
 [Angstrom] -> [Bohr] = [a.u.]                              1.88972613288564E+00
 [a.u.] = [Bohr] -> [Angstrom]                              5.29177208590000E-01
 [a.u.] -> [s]                                              2.41888432650478E-17
 [a.u.] -> [fs]                                             2.41888432650478E-02
 [a.u.] -> [J]                                              4.35974393937059E-18
 [a.u.] -> [N]                                              8.23872205491840E-08
 [a.u.] -> [K]                                              3.15774647902944E+05
 [a.u.] -> [kJ/mol]                                         2.62549961709828E+03
 [a.u.] -> [kcal/mol]                                       6.27509468713739E+02
 [a.u.] -> [Pa]                                             2.94210107994716E+13
 [a.u.] -> [bar]                                            2.94210107994716E+08
 [a.u.] -> [atm]                                            2.90362800883016E+08
 [a.u.] -> [eV]                                             2.72113838565563E+01
 [a.u.] -> [Hz]                                             6.57968392072181E+15
 [a.u.] -> [1/cm] (wave numbers)                            2.19474631370540E+05
 [a.u./Bohr**2] -> [1/cm]                                   5.14048714338585E+03
 

 CELL_TOP| Volume [angstrom^3]:                                     27000.000000
 CELL_TOP| Vector a [angstrom    30.000     0.000     0.000   |a| =    30.000000
 CELL_TOP| Vector b [angstrom     0.000    30.000     0.000   |b| =    30.000000
 CELL_TOP| Vector c [angstrom     0.000     0.000    30.000   |c| =    30.000000
 CELL_TOP| Angle (b,c), alpha [degree]:                                90.000000
 CELL_TOP| Angle (a,c), beta  [degree]:                                90.000000
 CELL_TOP| Angle (a,b), gamma [degree]:                                90.000000
 CELL_TOP| Numerically orthorhombic:                                         YES
 CELL_TOP| Periodicity                                                      NONE

 GENERATE|  Preliminary Number of Bonds generated:                             0
 GENERATE|  Achieved consistency in connectivity generation.

 CELL| Volume [angstrom^3]:                                         27000.000000
 CELL| Vector a [angstrom]:      30.000     0.000     0.000   |a| =    30.000000
 CELL| Vector b [angstrom]:       0.000    30.000     0.000   |b| =    30.000000
 CELL| Vector c [angstrom]:       0.000     0.000    30.000   |c| =    30.000000
 CELL| Angle (b,c), alpha [degree]:                                    90.000000
 CELL| Angle (a,c), beta  [degree]:                                    90.000000
 CELL| Angle (a,b), gamma [degree]:                                    90.000000
 CELL| Numerically orthorhombic:                                             YES
 CELL| Periodicity                                                          NONE

 CELL_REF| Volume [angstrom^3]:                                     27000.000000
 CELL_REF| Vector a [angstrom    30.000     0.000     0.000   |a| =    30.000000
 CELL_REF| Vector b [angstrom     0.000    30.000     0.000   |b| =    30.000000
 CELL_REF| Vector c [angstrom     0.000     0.000    30.000   |c| =    30.000000
 CELL_REF| Angle (b,c), alpha [degree]:                                90.000000
 CELL_REF| Angle (a,c), beta  [degree]:                                90.000000
 CELL_REF| Angle (a,b), gamma [degree]:                                90.000000
 CELL_REF| Numerically orthorhombic:                                         YES
 CELL_REF| Periodicity                                                      NONE

 *******************************************************************************
 *******************************************************************************
 **                                                                           **
 **     #####                         ##              ##                      **
 **    ##   ##            ##          ##              ##                      **
 **   ##     ##                       ##            ######                    **
 **   ##     ##  ##   ##  ##   #####  ##  ##   ####   ##    #####    #####    **
 **   ##     ##  ##   ##  ##  ##      ## ##   ##      ##   ##   ##  ##   ##   **
 **   ##  ## ##  ##   ##  ##  ##      ####     ###    ##   ######   ######    **
 **    ##  ###   ##   ##  ##  ##      ## ##      ##   ##   ##       ##        **
 **     #######   #####   ##   #####  ##  ##  ####    ##    #####   ##        **
 **           ##                                                    ##        **
 **                                                                           **
 **                                                ... make the atoms dance   **
 **                                                                           **
 **            Copyright (C) by CP2K developers group (2000-2025)             **
 **                      J. Chem. Phys. 152, 194103 (2020)                    **
 **                                                                           **
 *******************************************************************************

 DFT| Spin restricted Kohn-Sham (RKS) calculation                            RKS
 DFT| Multiplicity                                                             1
 DFT| Number of spin states                                                    1
 DFT| Charge                                                                   0
 DFT| Self-interaction correction (SIC)                                       NO
 DFT| Cutoffs: density                                              1.000000E-10
 DFT|          gradient                                             1.000000E-10
 DFT|          tau                                                  1.000000E-10
 DFT|          cutoff_smoothing_range                               0.000000E+00
 DFT| XC density smoothing                                                  NONE
 DFT| XC derivatives                                                          PW

 FUNCTIONAL| PBE:
 FUNCTIONAL| J.P.Perdew, K.Burke, M.Ernzerhof, Phys. Rev. Letter, vol. 77, n 18,
 FUNCTIONAL|  pp. 3865-3868, (1996)sx=0.750sc=1.000{spin unpolarized}           


 QS| Method:                                                                GAPW
 QS| Density plane wave grid type                        NON-SPHERICAL FULLSPACE
 QS| Number of grid levels:                                                    4
 QS| Density cutoff [a.u.]:                                                250.0
 QS| Multi grid cutoff [a.u.]: 1) grid level                               250.0
 QS|                           2) grid level                                83.3
 QS|                           3) grid level                                27.8
 QS|                           4) grid level                                 9.3
 QS| Grid level progression factor:                                          3.0
 QS| Relative density cutoff [a.u.]:                                        50.0
 QS| Interaction thresholds: eps_pgf_orb:                                1.0E-12
 QS|                         eps_filter_matrix:                          0.0E+00
 QS|                         eps_core_charge:                            1.0E-14
 QS|                         eps_rho_gspace:                             1.0E-12
 QS|                         eps_rho_rspace:                             1.0E-12
 QS|                         eps_gvg_rspace:                             1.0E-06
 QS|                         eps_ppl:                                    1.0E-02
 QS|                         eps_ppnl:                                   1.0E-08
 QS| GAPW|      One center basis from orbital basis primitives
 QS| GAPW|                   eps_fit:                                    1.0E-04
 QS| GAPW|                   eps_iso:                                    1.0E-12
 QS| GAPW|                   eps_svd:                                    1.0E-08
 QS| GAPW|                   eps_cpc:                                    1.0E-12
 QS| GAPW|   atom-r-grid: quadrature:                                     GC_LOG
 QS| GAPW|      atom-s-grid:  max l :                                          6
 QS| GAPW|      max_l_rho0 :                                                   2


 ATOMIC KIND INFORMATION

  1. Atomic kind: O                                     Number of atoms:       2

     Orbital Basis Set                                        aug-DZVP-MOLOPT-ae

       Number of orbital shell sets:                                           2
       Number of orbital shells:                                              10
       Number of primitive Cartesian functions:                               12
       Number of Cartesian basis functions:                                   35
       Number of spherical basis functions:                                   30
       Norm type:                                                              2

       Normalised Cartesian orbitals:

                        Set   Shell   Orbital            Exponent    Coefficient

                          1       1    2s                0.090000       0.120905
                                                         0.191936      -0.019521
                                                         0.750068       0.059582
                                                         2.907977       0.000000
                                                        16.368686       0.000000

                          1       2    3px               0.090000       0.000000
                                                         0.191936       0.023686
                                                         0.750068       0.626550
                                                         2.907977       2.082711
                                                        16.368686       3.596544
                          1       2    3py               0.090000       0.000000
                                                         0.191936       0.023686
                                                         0.750068       0.626550
                                                         2.907977       2.082711
                                                        16.368686       3.596544
                          1       2    3pz               0.090000       0.000000
                                                         0.191936       0.023686
                                                         0.750068       0.626550
                                                         2.907977       2.082711
                                                        16.368686       3.596544

                          1       3    4px               0.090000       0.000000
                                                         0.191936       0.196557
                                                         0.750068      -0.157257
                                                         2.907977      -0.566756
                                                        16.368686      -1.323495
                          1       3    4py               0.090000       0.000000
                                                         0.191936       0.196557
                                                         0.750068      -0.157257
                                                         2.907977      -0.566756
                                                        16.368686      -1.323495
                          1       3    4pz               0.090000       0.000000
                                                         0.191936       0.196557
                                                         0.750068      -0.157257
                                                         2.907977      -0.566756
                                                        16.368686      -1.323495

                          1       4    5px               0.090000       0.020606
                                                         0.191936       0.124186
                                                         0.750068       0.098287
                                                         2.907977       0.000000
                                                        16.368686       0.000000
                          1       4    5py               0.090000       0.020606
                                                         0.191936       0.124186
                                                         0.750068       0.098287
                                                         2.907977       0.000000
                                                        16.368686       0.000000
                          1       4    5pz               0.090000       0.020606
                                                         0.191936       0.124186
                                                         0.750068       0.098287
                                                         2.907977       0.000000
                                                        16.368686       0.000000

                          1       5    4dx2              0.090000       0.000000
                                                         0.191936       0.030414
                                                         0.750068       0.724129
                                                         2.907977       1.586204
                                                        16.368686       1.487256
                          1       5    4dxy              0.090000       0.000000
                                                         0.191936       0.052678
                                                         0.750068       1.254227
                                                         2.907977       2.747386
                                                        16.368686       2.576002
                          1       5    4dxz              0.090000       0.000000
                                                         0.191936       0.052678
                                                         0.750068       1.254227
                                                         2.907977       2.747386
                                                        16.368686       2.576002
                          1       5    4dy2              0.090000       0.000000
                                                         0.191936       0.030414
                                                         0.750068       0.724129
                                                         2.907977       1.586204
                                                        16.368686       1.487256
                          1       5    4dyz              0.090000       0.000000
                                                         0.191936       0.052678
                                                         0.750068       1.254227
                                                         2.907977       2.747386
                                                        16.368686       2.576002
                          1       5    4dz2              0.090000       0.000000
                                                         0.191936       0.030414
                                                         0.750068       0.724129
                                                         2.907977       1.586204
                                                        16.368686       1.487256

                          1       6    5dx2              0.090000      -0.010181
                                                         0.191936       0.018957
                                                         0.750068       0.933882
                                                         2.907977       0.008471
                                                        16.368686       0.000000
                          1       6    5dxy              0.090000      -0.017634
                                                         0.191936       0.032834
                                                         0.750068       1.617531
                                                         2.907977       0.014671
                                                        16.368686       0.000000
                          1       6    5dxz              0.090000      -0.017634
                                                         0.191936       0.032834
                                                         0.750068       1.617531
                                                         2.907977       0.014671
                                                        16.368686       0.000000
                          1       6    5dy2              0.090000      -0.010181
                                                         0.191936       0.018957
                                                         0.750068       0.933882
                                                         2.907977       0.008471
                                                        16.368686       0.000000
                          1       6    5dyz              0.090000      -0.017634
                                                         0.191936       0.032834
                                                         0.750068       1.617531
                                                         2.907977       0.014671
                                                        16.368686       0.000000
                          1       6    5dz2              0.090000      -0.010181
                                                         0.191936       0.018957
                                                         0.750068       0.933882
                                                         2.907977       0.008471
                                                        16.368686       0.000000

                          1       7    5fx3              0.090000       0.003073
                                                         0.191936       0.017866
                                                         0.750068       0.208981
                                                         2.907977      -1.809714
                                                        16.368686       0.000000
                          1       7    5fx2y             0.090000       0.006871
                                                         0.191936       0.039950
                                                         0.750068       0.467295
                                                         2.907977      -4.046643
                                                        16.368686       0.000000
                          1       7    5fx2z             0.090000       0.006871
                                                         0.191936       0.039950
                                                         0.750068       0.467295
                                                         2.907977      -4.046643
                                                        16.368686       0.000000
                          1       7    5fxy2             0.090000       0.006871
                                                         0.191936       0.039950
                                                         0.750068       0.467295
                                                         2.907977      -4.046643
                                                        16.368686       0.000000
                          1       7    5fxyz             0.090000       0.011901
                                                         0.191936       0.069196
                                                         0.750068       0.809378
                                                         2.907977      -7.008992
                                                        16.368686       0.000000
                          1       7    5fxz2             0.090000       0.006871
                                                         0.191936       0.039950
                                                         0.750068       0.467295
                                                         2.907977      -4.046643
                                                        16.368686       0.000000
                          1       7    5fy3              0.090000       0.003073
                                                         0.191936       0.017866
                                                         0.750068       0.208981
                                                         2.907977      -1.809714
                                                        16.368686       0.000000
                          1       7    5fy2z             0.090000       0.006871
                                                         0.191936       0.039950
                                                         0.750068       0.467295
                                                         2.907977      -4.046643
                                                        16.368686       0.000000
                          1       7    5fyz2             0.090000       0.006871
                                                         0.191936       0.039950
                                                         0.750068       0.467295
                                                         2.907977      -4.046643
                                                        16.368686       0.000000
                          1       7    5fz3              0.090000       0.003073
                                                         0.191936       0.017866
                                                         0.750068       0.208981
                                                         2.907977      -1.809714
                                                        16.368686       0.000000

                          2       1    1s                0.293338      -0.001581
                                                         0.941883       0.076823
                                                         5.946538      -1.128731
                                                        19.692604      -3.542509
                                                        76.928143      -3.538410
                                                       340.903325      -2.616043
                                                      2266.118827      -1.088852

                          2       2    2s                0.293338       0.124568
                                                         0.941883       0.386056
                                                         5.946538       0.132815
                                                        19.692604       0.350657
                                                        76.928143       1.294240
                                                       340.903325      -0.343055
                                                      2266.118827       0.730749

                          2       3    3s                0.293338       0.411906
                                                         0.941883      -0.735854
                                                         5.946538      -0.324434
                                                        19.692604      -0.580898
                                                        76.928143      -3.484318
                                                       340.903325       2.878168
                                                      2266.118827      -6.417666

     RI Auxiliary Basis Set             RI_aug-DZVP-MOLOPT-ae_N_RI_053_s_p_d_f_g

       Number of orbital shell sets:                                          17
       Number of orbital shells:                                              17
       Number of primitive Cartesian functions:                               17
       Number of Cartesian basis functions:                                   65
       Number of spherical basis functions:                                   53
       Norm type:                                                              2

       Normalised Cartesian orbitals:

                        Set   Shell   Orbital            Exponent    Coefficient

                          1       1    1s                0.371815       0.339356

                          2       1   13dx2              0.466494       0.433402
                          2       1   13dxy              0.466494       0.750674
                          2       1   13dxz              0.466494       0.750674
                          2       1   13dy2              0.466494       0.433402
                          2       1   13dyz              0.466494       0.750674
                          2       1   13dz2              0.466494       0.433402

                          3       1    8px               0.582473       0.725328
                          3       1    8py               0.582473       0.725328
                          3       1    8pz               0.582473       0.725328

                          4       1   17gx4              0.619225       0.297864
                          4       1   17gx3y             0.619225       0.788074
                          4       1   17gx3z             0.619225       0.788074
                          4       1   17gx2y2            0.619225       1.017400
                          4       1   17gx2yz            0.619225       1.762188
                          4       1   17gx2z2            0.619225       1.017400
                          4       1   17gxy3             0.619225       0.788074
                          4       1   17gxy2z            0.619225       1.762188
                          4       1   17gxyz2            0.619225       1.762188
                          4       1   17gxz3             0.619225       0.788074
                          4       1   17gy4              0.619225       0.297864
                          4       1   17gy3z             0.619225       0.788074
                          4       1   17gy2z2            0.619225       1.017400
                          4       1   17gyz3             0.619225       0.788074
                          4       1   17gz4              0.619225       0.297864

                          5       1    2s                0.667407       0.526263

                          6       1    9px               0.893629       1.238474
                          6       1    9py               0.893629       1.238474
                          6       1    9pz               0.893629       1.238474

                          7       1   14dx2              1.388982       2.925018
                          7       1   14dxy              1.388982       5.066280
                          7       1   14dxz              1.388982       5.066280
                          7       1   14dy2              1.388982       2.925018
                          7       1   14dyz              1.388982       5.066280
                          7       1   14dz2              1.388982       2.925018

                          8       1   16fx3              1.469914       3.502365
                          8       1   16fx2y             1.469914       7.831527
                          8       1   16fx2z             1.469914       7.831527
                          8       1   16fxy2             1.469914       7.831527
                          8       1   16fxyz             1.469914      13.564602
                          8       1   16fxz2             1.469914       7.831527
                          8       1   16fy3              1.469914       3.502365
                          8       1   16fy2z             1.469914       7.831527
                          8       1   16fyz2             1.469914       7.831527
                          8       1   16fz3              1.469914       3.502365

                          9       1    3s                1.869410       1.139432

                         10       1   10px               3.900887       7.814375
                         10       1   10py               3.900887       7.814375
                         10       1   10pz               3.900887       7.814375

                         11       1   15dx2              4.869073      26.268809
                         11       1   15dxy              4.869073      45.498912
                         11       1   15dxz              4.869073      45.498912
                         11       1   15dy2              4.869073      26.268809
                         11       1   15dyz              4.869073      45.498912
                         11       1   15dz2              4.869073      26.268809

                         12       1    4s                5.983821       2.726742

                         13       1   11px              10.648991      27.420517
                         13       1   11py              10.648991      27.420517
                         13       1   11pz              10.648991      27.420517

                         14       1    5s               18.362694       6.322115

                         15       1   12px              31.358469     105.775149
                         15       1   12py              31.358469     105.775149
                         15       1   12pz              31.358469     105.775149

                         16       1    6s               54.876123      14.369699

                         17       1    7s              162.368202      32.417971

       Atomic covalent radius [Angstrom]:                                  0.730

       Atomic van der Waals radius [Angstrom]:                             1.520

     The atoms of this atomic kind are PAW atoms (GAPW):
       Hard Gaussian function radius:                                      1.512
       Rho0 radius:                                                        1.512
       Maximum GTO radius used for PAW projector construction:            24.566

     GAPW Soft Basis Set                                 aug-DZVP-MOLOPT-ae_soft

       Number of orbital shell sets:                                           2
       Number of orbital shells:                                              10
       Number of primitive Cartesian functions:                                6
       Number of Cartesian basis functions:                                   35
       Number of spherical basis functions:                                   30
       Norm type:                                                              2

       Normalised Cartesian orbitals:

                        Set   Shell   Orbital            Exponent    Coefficient

                          1       1    2s                0.090000       0.120905
                                                         0.191936      -0.019521
                                                         0.750068       0.059582
                                                         2.907977       0.000000

                          1       2    3px               0.090000       0.000000
                                                         0.191936       0.023686
                                                         0.750068       0.626550
                                                         2.907977       2.082711
                          1       2    3py               0.090000       0.000000
                                                         0.191936       0.023686
                                                         0.750068       0.626550
                                                         2.907977       2.082711
                          1       2    3pz               0.090000       0.000000
                                                         0.191936       0.023686
                                                         0.750068       0.626550
                                                         2.907977       2.082711

                          1       3    4px               0.090000       0.000000
                                                         0.191936       0.196557
                                                         0.750068      -0.157257
                                                         2.907977      -0.566756
                          1       3    4py               0.090000       0.000000
                                                         0.191936       0.196557
                                                         0.750068      -0.157257
                                                         2.907977      -0.566756
                          1       3    4pz               0.090000       0.000000
                                                         0.191936       0.196557
                                                         0.750068      -0.157257
                                                         2.907977      -0.566756

                          1       4    5px               0.090000       0.020606
                                                         0.191936       0.124186
                                                         0.750068       0.098287
                                                         2.907977       0.000000
                          1       4    5py               0.090000       0.020606
                                                         0.191936       0.124186
                                                         0.750068       0.098287
                                                         2.907977       0.000000
                          1       4    5pz               0.090000       0.020606
                                                         0.191936       0.124186
                                                         0.750068       0.098287
                                                         2.907977       0.000000

                          1       5    4dx2              0.090000       0.000000
                                                         0.191936       0.030414
                                                         0.750068       0.724129
                                                         2.907977       1.586204
                          1       5    4dxy              0.090000       0.000000
                                                         0.191936       0.052678
                                                         0.750068       1.254227
                                                         2.907977       2.747386
                          1       5    4dxz              0.090000       0.000000
                                                         0.191936       0.052678
                                                         0.750068       1.254227
                                                         2.907977       2.747386
                          1       5    4dy2              0.090000       0.000000
                                                         0.191936       0.030414
                                                         0.750068       0.724129
                                                         2.907977       1.586204
                          1       5    4dyz              0.090000       0.000000
                                                         0.191936       0.052678
                                                         0.750068       1.254227
                                                         2.907977       2.747386
                          1       5    4dz2              0.090000       0.000000
                                                         0.191936       0.030414
                                                         0.750068       0.724129
                                                         2.907977       1.586204

                          1       6    5dx2              0.090000      -0.010181
                                                         0.191936       0.018957
                                                         0.750068       0.933882
                                                         2.907977       0.008471
                          1       6    5dxy              0.090000      -0.017634
                                                         0.191936       0.032834
                                                         0.750068       1.617531
                                                         2.907977       0.014671
                          1       6    5dxz              0.090000      -0.017634
                                                         0.191936       0.032834
                                                         0.750068       1.617531
                                                         2.907977       0.014671
                          1       6    5dy2              0.090000      -0.010181
                                                         0.191936       0.018957
                                                         0.750068       0.933882
                                                         2.907977       0.008471
                          1       6    5dyz              0.090000      -0.017634
                                                         0.191936       0.032834
                                                         0.750068       1.617531
                                                         2.907977       0.014671
                          1       6    5dz2              0.090000      -0.010181
                                                         0.191936       0.018957
                                                         0.750068       0.933882
                                                         2.907977       0.008471

                          1       7    5fx3              0.090000       0.003073
                                                         0.191936       0.017866
                                                         0.750068       0.208981
                                                         2.907977      -1.809714
                          1       7    5fx2y             0.090000       0.006871
                                                         0.191936       0.039950
                                                         0.750068       0.467295
                                                         2.907977      -4.046643
                          1       7    5fx2z             0.090000       0.006871
                                                         0.191936       0.039950
                                                         0.750068       0.467295
                                                         2.907977      -4.046643
                          1       7    5fxy2             0.090000       0.006871
                                                         0.191936       0.039950
                                                         0.750068       0.467295
                                                         2.907977      -4.046643
                          1       7    5fxyz             0.090000       0.011901
                                                         0.191936       0.069196
                                                         0.750068       0.809378
                                                         2.907977      -7.008992
                          1       7    5fxz2             0.090000       0.006871
                                                         0.191936       0.039950
                                                         0.750068       0.467295
                                                         2.907977      -4.046643
                          1       7    5fy3              0.090000       0.003073
                                                         0.191936       0.017866
                                                         0.750068       0.208981
                                                         2.907977      -1.809714
                          1       7    5fy2z             0.090000       0.006871
                                                         0.191936       0.039950
                                                         0.750068       0.467295
                                                         2.907977      -4.046643
                          1       7    5fyz2             0.090000       0.006871
                                                         0.191936       0.039950
                                                         0.750068       0.467295
                                                         2.907977      -4.046643
                          1       7    5fz3              0.090000       0.003073
                                                         0.191936       0.017866
                                                         0.750068       0.208981
                                                         2.907977      -1.809714

                          2       1    1s                0.293338      -0.001581
                                                         0.941883       0.076823

                          2       2    2s                0.293338       0.124568
                                                         0.941883       0.386056

                          2       3    3s                0.293338       0.411906
                                                         0.941883      -0.735854

     AE Potential information for                                            ALL

       Description:                                       All-electron potential
                                          Krack, Parrinello, PCCP 2, 2105 (2000)

       Gaussian exponent of the core charge distribution:               8.154466
       Electronic configuration (s p d ...):                           4   4   0


 MOLECULE KIND INFORMATION


 All atoms are their own molecule, skipping detailed information


 TOTAL NUMBERS AND MAXIMUM NUMBERS

  Total number of            - Atomic kinds:                                   1
                             - Atoms:                                          2
                             - Shell sets:                                     4
                             - Shells:                                        20
                             - Primitive Cartesian functions:                 24
                             - Cartesian basis functions:                     70
                             - Spherical basis functions:                     60

  Maximum angular momentum of the orbital basis functions:                     3


 MODULE QUICKSTEP: ATOMIC COORDINATES IN ANGSTROM

   Atom Kind Element         X             Y             Z       Z(eff)     Mass
      1    1 O     8     15.603900     15.000000     15.000000   8.0000  15.9994
      2    1 O     8     14.396100     15.000000     15.000000   8.0000  15.9994



 SCF PARAMETERS         Density guess:                                    ATOMIC
                        --------------------------------------------------------
                        max_scf:                                             500
                        max_scf_history:                                       0
                        max_diis:                                              4
                        --------------------------------------------------------
                        eps_scf:                                        1.00E-06
                        eps_scf_history:                                0.00E+00
                        eps_diis:                                       1.00E-01
                        eps_eigval:                                     1.00E-05
                        --------------------------------------------------------
                        level_shift [a.u.]:                             0.000000
                        added MOs                                        52    0
                        --------------------------------------------------------
                        Mixing method:                            BROYDEN_MIXING
                                                charge density mixing in g-space
                        --------------------------------------------------------
                        No outer SCF

 PW_GRID| Information for grid number                                          1
 PW_GRID| Grid distributed over                                    24 processors
 PW_GRID| Real space group dimensions                                    24    1
 PW_GRID| the grid is blocked:                                                NO
 PW_GRID| Cutoff [a.u.]                                                    250.0
 PW_GRID| spherical cutoff:                                                   NO
 PW_GRID|   Bounds   1           -202     202                Points:         405
 PW_GRID|   Bounds   2           -202     202                Points:         405
 PW_GRID|   Bounds   3           -202     202                Points:         405
 PW_GRID| Volume element (a.u.^3)  0.2743E-02     Volume (a.u.^3)    182205.0337
 PW_GRID| Grid span                                                    FULLSPACE
 PW_GRID|   Distribution                         Average         Max         Min
 PW_GRID|   G-Vectors                          2767921.9     2768175     2767770
 PW_GRID|   G-Rays                                6834.4        6835        6834
 PW_GRID|   Real Space Points                  2767921.9     2788425     2624400

 PW_GRID| Information for grid number                                          2
 PW_GRID| Number of the reference grid                                         1
 PW_GRID| Grid distributed over                                    24 processors
 PW_GRID| Real space group dimensions                                    24    1
 PW_GRID| the grid is blocked:                                                NO
 PW_GRID| Cutoff [a.u.]                                                     83.3
 PW_GRID| spherical cutoff:                                                   NO
 PW_GRID|   Bounds   1           -120     119                Points:         240
 PW_GRID|   Bounds   2           -120     119                Points:         240
 PW_GRID|   Bounds   3           -120     119                Points:         240
 PW_GRID| Volume element (a.u.^3)  0.1318E-01     Volume (a.u.^3)    182205.0337
 PW_GRID| Grid span                                                    FULLSPACE
 PW_GRID|   Distribution                         Average         Max         Min
 PW_GRID|   G-Vectors                           576000.0      576240      575760
 PW_GRID|   G-Rays                                2400.0        2401        2399
 PW_GRID|   Real Space Points                   576000.0      576000      576000

 PW_GRID| Information for grid number                                          3
 PW_GRID| Number of the reference grid                                         1
 PW_GRID| Grid distributed over                                    24 processors
 PW_GRID| Real space group dimensions                                    24    1
 PW_GRID| the grid is blocked:                                                NO
 PW_GRID| Cutoff [a.u.]                                                     27.8
 PW_GRID| spherical cutoff:                                                   NO
 PW_GRID|   Bounds   1            -67      67                Points:         135
 PW_GRID|   Bounds   2            -67      67                Points:         135
 PW_GRID|   Bounds   3            -67      67                Points:         135
 PW_GRID| Volume element (a.u.^3)  0.7406E-01     Volume (a.u.^3)    182205.0337
 PW_GRID| Grid span                                                    FULLSPACE
 PW_GRID|   Distribution                         Average         Max         Min
 PW_GRID|   G-Vectors                           102515.6      102735      102330
 PW_GRID|   G-Rays                                 759.4         761         758
 PW_GRID|   Real Space Points                   102515.6      109350       91125

 PW_GRID| Information for grid number                                          4
 PW_GRID| Number of the reference grid                                         1
 PW_GRID| Grid distributed over                                    24 processors
 PW_GRID| Real space group dimensions                                    24    1
 PW_GRID| the grid is blocked:                                                NO
 PW_GRID| Cutoff [a.u.]                                                      9.3
 PW_GRID| spherical cutoff:                                                   NO
 PW_GRID|   Bounds   1            -40      39                Points:          80
 PW_GRID|   Bounds   2            -40      39                Points:          80
 PW_GRID|   Bounds   3            -40      39                Points:          80
 PW_GRID| Volume element (a.u.^3)  0.3559         Volume (a.u.^3)    182205.0337
 PW_GRID| Grid span                                                    FULLSPACE
 PW_GRID|   Distribution                         Average         Max         Min
 PW_GRID|   G-Vectors                            21333.3       21360       21280
 PW_GRID|   G-Rays                                 266.7         267         266
 PW_GRID|   Real Space Points                    21333.3       25600       19200

 POISSON| Solver                                                         WAVELET
 POISSON| Wavelet| Scaling function                                           40
 POISSON| Periodicity                                                       NONE

 RS_GRID| Information for grid number                                          1
 RS_GRID|   Bounds   1           -202     202                Points:         405
 RS_GRID|   Bounds   2           -202     202                Points:         405
 RS_GRID|   Bounds   3           -202     202                Points:         405
 RS_GRID| Real space distribution over                                  4 groups
 RS_GRID| Real space distribution along direction                              2
 RS_GRID| Border size                                                         34
 RS_GRID| Real space distribution over                                  6 groups
 RS_GRID| Real space distribution along direction                              3
 RS_GRID| Border size                                                         34
 RS_GRID|   Distribution                         Average         Max         Min
 RS_GRID|   Planes                                 169.2         170         169
 RS_GRID|   Distribution                         Average         Max         Min
 RS_GRID|   Planes                                 135.5         136         135

 RS_GRID| Information for grid number                                          2
 RS_GRID|   Bounds   1           -120     119                Points:         240
 RS_GRID|   Bounds   2           -120     119                Points:         240
 RS_GRID|   Bounds   3           -120     119                Points:         240
 RS_GRID| Real space distribution over                                  4 groups
 RS_GRID| Real space distribution along direction                              2
 RS_GRID| Border size                                                         34
 RS_GRID| Real space distribution over                                  6 groups
 RS_GRID| Real space distribution along direction                              3
 RS_GRID| Border size                                                         34
 RS_GRID|   Distribution                         Average         Max         Min
 RS_GRID|   Planes                                 128.0         128         128
 RS_GRID|   Distribution                         Average         Max         Min
 RS_GRID|   Planes                                 108.0         108         108

 RS_GRID| Information for grid number                                          3
 RS_GRID|   Bounds   1            -67      67                Points:         135
 RS_GRID|   Bounds   2            -67      67                Points:         135
 RS_GRID|   Bounds   3            -67      67                Points:         135
 RS_GRID| Real space fully replicated
 RS_GRID| Group size                                                           1

 RS_GRID| Information for grid number                                          4
 RS_GRID|   Bounds   1            -40      39                Points:          80
 RS_GRID|   Bounds   2            -40      39                Points:          80
 RS_GRID|   Bounds   3            -40      39                Points:          80
 RS_GRID| Real space fully replicated
 RS_GRID| Group size                                                           1

  HFX_INFO| Replica ID:                                                        1
  HFX_INFO| FRACTION:                                               0.2500000000
  HFX_INFO| Interaction Potential:                                       COULOMB
  HFX_INFO| EPS_SCHWARZ:                                                 1.0E-10
  HFX_INFO| EPS_SCHWARZ_FORCES                                           1.0E-08
  HFX_INFO| EPS_STORAGE_SCALING:                                         1.0E+00
  HFX_INFO| NBINS:                                                            64
  HFX_INFO| BLOCK_SIZE:                                                        1
  HFX_INFO| Number of periodic shells considered:                           NONE
  HFX_INFO| Number of periodic cells considered:                            NONE

 
 RI-RPA| using GPW style
 

 OVERLAP MATRIX CONDITION NUMBER
 1-Norm Condition Number (Estimate)
   CN : |A|*|A^-1|:  5.696E+000 *  6.106E+003   = 3.478E+004  Log(1-CN):  4.5413
 1-Norm and 2-Norm Condition Numbers using Diagonalization
   CN : |A|*|A^-1|:  5.696E+000 *  6.106E+003   = 3.478E+004  Log(1-CN):  4.5413
   CN : max/min ev:  4.081E+000 /  2.235E-004   = 1.825E+004  Log(2-CN):  4.2614

 Number of electrons:                                                         16
 Number of occupied orbitals:                                                  8
 Number of molecular orbitals:                                                60

 Number of orbital functions:                                                 60
 Number of independent orbital functions:                                     60

 Extrapolation method: initial_guess

 Atomic guess: The first density matrix is obtained in terms of atomic orbitals
               and electronic configurations assigned to each atomic kind

 Guess for atomic kind: O

 Electronic structure
    Total number of core electrons                                          0.00
    Total number of valence electrons                                       8.00
    Total number of electrons                                               8.00
    Multiplicity                                                   not specified
    S      2.00  2.00
    P      4.00


 *******************************************************************************
                  Iteration          Convergence                     Energy [au]
 *******************************************************************************
                          1        0.848674                     -74.203659346590
                          2        0.676538                     -74.224350300929
                          3        0.118146E-01                 -74.325384117638
                          4        0.875023E-03                 -74.325411956579
                          5        0.262407E-04                 -74.325412100097
                          6        0.953925E-07                 -74.325412100225

 Energy components [Hartree]           Total Energy ::          -74.325412100225
                                        Band Energy ::          -40.703914598313
                                     Kinetic Energy ::           74.466117831440
                                   Potential Energy ::         -148.791529931665
                                      Virial (-V/T) ::            1.998110473121
                                        Core Energy ::         -102.666843544949
                                          XC Energy ::           -7.743421966386
                                     Coulomb Energy ::           36.084853411110

 Orbital energies  State     L     Occupation   Energy[a.u.]          Energy[eV]

                       1     0          2.000     -18.799663         -511.564844
                       2     0          2.000      -0.852501          -23.197720

                       1     1          4.000      -0.349897           -9.521179


 Total Electron Density at R=0:                                       292.094851
 Re-scaling the density matrix to get the right number of electrons
                  # Electrons              Trace(P)               Scaling factor
                           16                16.000                        1.000


 SCF WAVEFUNCTION OPTIMIZATION

  Step     Update method      Time    Convergence         Total energy    Change
  ------------------------------------------------------------------------------

  HFX_MEM_INFO| Est. max. program size before HFX [MiB]:                    2147
  HFX_MEM_INFO| Number of cart. primitive ERI's calculated:            760130289
  HFX_MEM_INFO| Number of sph. ERI's calculated:                         4860000
  HFX_MEM_INFO| Number of sph. ERI's stored in-core:                     4860000
  HFX_MEM_INFO| Number of sph. ERI's stored on disk:                           0
  HFX_MEM_INFO| Number of sph. ERI's calculated on the fly:                    0
  HFX_MEM_INFO| Total memory consumption ERI's RAM [MiB]:                     21
  HFX_MEM_INFO| Whereof max-vals [MiB]:                                        1
  HFX_MEM_INFO| Total compression factor ERI's RAM:                         1.81
  HFX_MEM_INFO| Total memory consumption ERI's disk [MiB]:                     0
  HFX_MEM_INFO| Total compression factor ERI's disk:                        0.00
  HFX_MEM_INFO| Size of density/Fock matrix [MiB]:                             0
  HFX_MEM_INFO| Size of buffers [MiB]:                                        16
  HFX_MEM_INFO| Est. max. program size after HFX  [MiB]:                    2683

     1 NoMix/Diag. 0.10E+00   19.2     1.13822831      -150.1636200753 -1.50E+02
     2 Broy./Diag. 0.10E+00    4.7     0.03820715      -149.6438958217  5.20E-01
     3 Broy./Diag. 0.10E+00    4.8     0.03883465      -149.7745549174 -1.31E-01
     4 Broy./Diag. 0.10E+00    4.8     0.01448496      -150.0297312121 -2.55E-01
     5 Broy./Diag. 0.10E+00    4.8     0.00603368      -150.0287434537  9.88E-04
     6 Broy./Diag. 0.10E+00    4.9     0.02288258      -149.9136380221  1.15E-01
     7 Broy./Diag. 0.10E+00    5.0     0.00156919      -149.8480155321  6.56E-02
     8 Broy./Diag. 0.10E+00    5.1     0.00086463      -149.8559077973 -7.89E-03
     9 Broy./Diag. 0.10E+00    5.2     0.00259137      -149.8953677182 -3.95E-02
    10 Broy./Diag. 0.10E+00    5.3     0.00114630      -149.9168129618 -2.14E-02
    11 Broy./Diag. 0.10E+00    5.3     0.00184728      -149.9018049836  1.50E-02
    12 Broy./Diag. 0.10E+00    5.3     0.00062115      -149.8957584775  6.05E-03
    13 Broy./Diag. 0.10E+00    5.3     0.00084536      -149.8978239488 -2.07E-03
    14 Broy./Diag. 0.10E+00    5.3     0.00168896      -149.8974911105  3.33E-04
    15 Broy./Diag. 0.10E+00    5.3     0.00018780      -149.8973824823  1.09E-04
    16 Broy./Diag. 0.10E+00    5.3     0.00173841      -149.9001275700 -2.75E-03
    17 Broy./Diag. 0.10E+00    5.4     0.00100842      -149.9008736658 -7.46E-04
    18 Broy./Diag. 0.10E+00    5.3     0.00027572      -149.9002673171  6.06E-04
    19 Broy./Diag. 0.10E+00    5.3     0.00062072      -149.9003923034 -1.25E-04
    20 Broy./Diag. 0.10E+00    5.3     0.00019278      -149.8996440354  7.48E-04
    21 Broy./Diag. 0.10E+00    5.3     0.00016993      -149.8982693879  1.37E-03
    22 Broy./Diag. 0.10E+00    5.3     0.00003820      -149.8980667481  2.03E-04
    23 Broy./Diag. 0.10E+00    5.3     0.00002189      -149.8983432533 -2.77E-04
    24 Broy./Diag. 0.10E+00    5.3     0.00007915      -149.8982194238  1.24E-04
    25 Broy./Diag. 0.10E+00    5.4     0.00002470      -149.8980230495  1.96E-04
    26 Broy./Diag. 0.10E+00    5.4     0.00003346      -149.8977687468  2.54E-04
    27 Broy./Diag. 0.10E+00    5.3     0.00001732      -149.8976938697  7.49E-05
    28 Broy./Diag. 0.10E+00    5.3     0.00003289      -149.8979858714 -2.92E-04
    29 Broy./Diag. 0.10E+00    5.3     0.00008243      -149.8980470378 -6.12E-05
    30 Broy./Diag. 0.10E+00    5.3     0.00011073      -149.8979922997  5.47E-05
    31 Broy./Diag. 0.10E+00    5.3     0.00002004      -149.8980855613 -9.33E-05
    32 Broy./Diag. 0.10E+00    5.4     0.00001499      -149.8981303477 -4.48E-05
    33 Broy./Diag. 0.10E+00    5.4     0.00000151      -149.8981036439  2.67E-05
    34 Broy./Diag. 0.10E+00    5.4     0.00002109      -149.8980840533  1.96E-05
    35 Broy./Diag. 0.10E+00    5.3     0.00000330      -149.8980559447  2.81E-05
    36 Broy./Diag. 0.10E+00    5.3     0.00003876      -149.8980883403 -3.24E-05
    37 Broy./Diag. 0.10E+00    5.4     0.00002196      -149.8980666682  2.17E-05
    38 Broy./Diag. 0.10E+00    5.3     0.00000318      -149.8980285472  3.81E-05
    39 Broy./Diag. 0.10E+00    5.3     0.00000553      -149.8980342419 -5.69E-06
    40 Broy./Diag. 0.10E+00    5.3     0.00001852      -149.8980357008 -1.46E-06
    41 Broy./Diag. 0.10E+00    5.4     0.00000467      -149.8980345666  1.13E-06
    42 Broy./Diag. 0.10E+00    5.3     0.00000329      -149.8980387082 -4.14E-06
    43 Broy./Diag. 0.10E+00    5.3     0.00000363      -149.8980409529 -2.24E-06
    44 Broy./Diag. 0.10E+00    5.4     0.00000616      -149.8980432709 -2.32E-06
    45 Broy./Diag. 0.10E+00    5.4     0.00000953      -149.8980461359 -2.87E-06
    46 Broy./Diag. 0.10E+00    5.3     0.00001328      -149.8980475649 -1.43E-06
    47 Broy./Diag. 0.10E+00    5.3     0.00002117      -149.8980455108  2.05E-06
    48 Broy./Diag. 0.10E+00    5.3     0.00003191      -149.8980451091  4.02E-07
    49 Broy./Diag. 0.10E+00    5.4     0.00004963      -149.8980454470 -3.38E-07
    50 Broy./Diag. 0.10E+00    5.4     0.00007705      -149.8980456496 -2.03E-07
    51 Broy./Diag. 0.10E+00    5.4     0.00012025      -149.8980461308 -4.81E-07
    52 Broy./Diag. 0.10E+00    5.3     0.00018707      -149.8980466614 -5.31E-07
    53 Broy./Diag. 0.10E+00    5.3     0.00029145      -149.8980473846 -7.23E-07
    54 Broy./Diag. 0.10E+00    5.3     0.00045380      -149.8980478792 -4.95E-07
    55 Broy./Diag. 0.10E+00    5.3     0.00070723      -149.8980474224  4.57E-07
    56 Broy./Diag. 0.10E+00    5.4     0.00110003      -149.8980420725  5.35E-06
    57 Broy./Diag. 0.10E+00    5.3     0.00171368      -149.8980367163  5.36E-06
    58 Broy./Diag. 0.10E+00    5.4     0.00267042      -149.8980347854  1.93E-06
    59 Broy./Diag. 0.10E+00    5.3     0.00415736      -149.8980334945  1.29E-06
    60 Broy./Diag. 0.10E+00    5.3     0.00646963      -149.8980338810 -3.86E-07
    61 Broy./Diag. 0.10E+00    5.3     0.01006551      -149.8980340528 -1.72E-07
    62 Broy./Diag. 0.10E+00    5.3     0.01563505      -149.8980271331  6.92E-06
    63 Broy./Diag. 0.10E+00    5.4     0.02417932      -149.8979879052  3.92E-05
    64 Broy./Diag. 0.10E+00    5.3     0.03702309      -149.8978521526  1.36E-04
    65 Broy./Diag. 0.10E+00    5.4     0.05533079      -149.8974743673  3.78E-04
    66 Broy./Diag. 0.10E+00    5.4     0.07828826      -149.8966194082  8.55E-04
    67 Broy./Diag. 0.10E+00    5.3     0.09826926      -149.8947300265  1.89E-03
    68 Broy./Diag. 0.10E+00    5.3     0.12280865      -149.8907501367  3.98E-03
    69 Broy./Diag. 0.10E+00    5.3     0.16730993      -149.8834241807  7.33E-03
    70 Broy./Diag. 0.10E+00    5.3     0.17480844      -149.8725471088  1.09E-02
    71 Broy./Diag. 0.10E+00    5.3     0.14532035      -149.8601818970  1.24E-02
    72 Broy./Diag. 0.10E+00    5.3     0.10256130      -149.8492735296  1.09E-02
    73 Broy./Diag. 0.10E+00    5.4     0.07669976      -149.8413190752  7.95E-03
    74 Broy./Diag. 0.10E+00    5.3     0.06647169      -149.8361754304  5.14E-03
    75 Broy./Diag. 0.10E+00    5.3     0.05353637      -149.8330955259  3.08E-03
    76 Broy./Diag. 0.10E+00    5.3     0.04157470      -149.8313339771  1.76E-03
    77 Broy./Diag. 0.10E+00    5.4     0.03212115      -149.8303784402  9.56E-04
    78 Broy./Diag. 0.10E+00    5.3     0.02813064      -149.8311233648 -7.45E-04
    79 Broy./Diag. 0.10E+00    5.3     0.02703833      -149.8326742052 -1.55E-03
    80 Broy./Diag. 0.10E+00    5.3     0.02586785      -149.8325354138  1.39E-04
    81 Broy./Diag. 0.10E+00    5.4     0.03382763      -149.8429065883 -1.04E-02
    82 Broy./Diag. 0.10E+00    5.4     0.06020067      -149.8788176181 -3.59E-02
    83 Broy./Diag. 0.10E+00    5.3     0.13424650      -149.9974553953 -1.19E-01
    84 Broy./Diag. 0.10E+00    5.3     0.13930733      -150.0374651350 -4.00E-02
    85 Broy./Diag. 0.10E+00    5.4     0.08939015      -150.0801980705 -4.27E-02
    86 Broy./Diag. 0.10E+00    5.3     0.02514467      -149.9390621384  1.41E-01
    87 Broy./Diag. 0.10E+00    5.3     0.01197469      -149.9699959383 -3.09E-02
    88 Broy./Diag. 0.10E+00    5.4     0.01647327      -150.0098991280 -3.99E-02
    89 Broy./Diag. 0.10E+00    5.3     0.31737595      -149.9078090406  1.02E-01
    90 Broy./Diag. 0.10E+00    5.4     0.15907622      -150.0616688977 -1.54E-01
    91 Broy./Diag. 0.10E+00    5.3     0.05379044      -150.0623831125 -7.14E-04
    92 Broy./Diag. 0.10E+00    5.3     0.04136538      -150.0189742459  4.34E-02
    93 Broy./Diag. 0.10E+00    5.4     0.17730270      -149.9123424701  1.07E-01
    94 Broy./Diag. 0.10E+00    5.4     0.33831287      -149.7928484266  1.19E-01
    95 Broy./Diag. 0.10E+00    5.3     0.18043757      -149.8073936608 -1.45E-02
    96 Broy./Diag. 0.10E+00    5.3     0.15562177      -149.9711884784 -1.64E-01
    97 Broy./Diag. 0.10E+00    5.4     0.23953044      -150.0962717901 -1.25E-01
    98 Broy./Diag. 0.10E+00    5.4     0.17613348      -150.0950839596  1.19E-03
    99 Broy./Diag. 0.10E+00    5.4     0.06010349      -150.0522549561  4.28E-02
   100 Broy./Diag. 0.10E+00    5.4     0.04678495      -150.0528545429 -6.00E-04
   101 Broy./Diag. 0.10E+00    5.4     0.03651624      -150.0154078948  3.74E-02
   102 Broy./Diag. 0.10E+00    5.3     0.02575309      -150.0088812443  6.53E-03
   103 Broy./Diag. 0.10E+00    5.3     0.01869097      -149.9740936908  3.48E-02
   104 Broy./Diag. 0.10E+00    5.3     0.07416449      -149.9726562448  1.44E-03
   105 Broy./Diag. 0.10E+00    5.4     0.07771980      -149.9997334362 -2.71E-02
   106 Broy./Diag. 0.10E+00    5.4     0.26436573      -149.8952646126  1.04E-01
   107 Broy./Diag. 0.10E+00    5.4     0.20676837      -149.9745961403 -7.93E-02
   108 Broy./Diag. 0.10E+00    5.3     0.22101090      -149.7773106802  1.97E-01
   109 Broy./Diag. 0.10E+00    5.3     0.10237913      -149.9103596355 -1.33E-01
   110 Broy./Diag. 0.10E+00    5.3     0.02674075      -149.8947850433  1.56E-02
   111 Broy./Diag. 0.10E+00    5.3     0.02298000      -149.9195168946 -2.47E-02
   112 Broy./Diag. 0.10E+00    5.3     0.01806787      -149.8840774735  3.54E-02
   113 Broy./Diag. 0.10E+00    5.4     0.05198362      -149.8276001049  5.65E-02
   114 Broy./Diag. 0.10E+00    5.3     0.08054242      -149.8427160465 -1.51E-02
   115 Broy./Diag. 0.10E+00    5.3     0.01475082      -149.8579386014 -1.52E-02
   116 Broy./Diag. 0.10E+00    5.3     0.22734087      -149.8707925561 -1.29E-02
   117 Broy./Diag. 0.10E+00    5.3     0.18843115      -149.9807805855 -1.10E-01
   118 Broy./Diag. 0.10E+00    5.4     0.31641498      -149.8678390151  1.13E-01
   119 Broy./Diag. 0.10E+00    5.3     0.09924282      -149.9714444121 -1.04E-01
   120 Broy./Diag. 0.10E+00    5.3     0.04090129      -149.9045945362  6.68E-02
   121 Broy./Diag. 0.10E+00    5.3     0.03546061      -149.8741742514  3.04E-02
   122 Broy./Diag. 0.10E+00    5.3     0.01473821      -149.9457161599 -7.15E-02
   123 Broy./Diag. 0.10E+00    5.3     0.01887369      -149.9174858407  2.82E-02
   124 Broy./Diag. 0.10E+00    5.4     0.03363832      -149.9099995419  7.49E-03
   125 Broy./Diag. 0.10E+00    5.4     0.03410152      -149.9186684494 -8.67E-03
   126 Broy./Diag. 0.10E+00    5.4     0.16658189      -149.9256335089 -6.97E-03
   127 Broy./Diag. 0.10E+00    5.4     0.24473908      -149.9343713900 -8.74E-03
   128 Broy./Diag. 0.10E+00    5.3     0.27255422      -149.9132886199  2.11E-02
   129 Broy./Diag. 0.10E+00    5.3     0.09968986      -150.0062844097 -9.30E-02
   130 Broy./Diag. 0.10E+00    5.4     0.08497465      -150.0251758733 -1.89E-02
   131 Broy./Diag. 0.10E+00    5.3     0.03791100      -150.0895538559 -6.44E-02
   132 Broy./Diag. 0.10E+00    5.3     0.01144948      -150.1112054870 -2.17E-02
   133 Broy./Diag. 0.10E+00    5.4     0.06338038      -150.0427130381  6.85E-02
   134 Broy./Diag. 0.10E+00    5.3     0.05809156      -150.0178298006  2.49E-02
   135 Broy./Diag. 0.10E+00    5.3     0.09346771      -150.0100928694  7.74E-03
   136 Broy./Diag. 0.10E+00    5.3     0.19231013      -149.9642647451  4.58E-02
   137 Broy./Diag. 0.10E+00    5.3     0.22364441      -149.9891095025 -2.48E-02
   138 Broy./Diag. 0.10E+00    5.4     0.15978543      -149.9658999463  2.32E-02
   139 Broy./Diag. 0.10E+00    5.3     0.04164348      -149.9524225225  1.35E-02
   140 Broy./Diag. 0.10E+00    5.3     0.19282402      -149.9156465329  3.68E-02
   141 Broy./Diag. 0.10E+00    5.3     0.22218933      -149.9120979936  3.55E-03
   142 Broy./Diag. 0.10E+00    5.3     0.13857330      -149.8991563218  1.29E-02
   143 Broy./Diag. 0.10E+00    5.4     0.13954188      -149.8239981167  7.52E-02
   144 Broy./Diag. 0.10E+00    5.3     0.10476249      -149.8332345321 -9.24E-03
   145 Broy./Diag. 0.10E+00    5.3     0.02254884      -149.9433974688 -1.10E-01
   146 Broy./Diag. 0.10E+00    5.4     0.08870906      -150.0477605178 -1.04E-01
   147 Broy./Diag. 0.10E+00    5.3     0.18223900      -150.1132811791 -6.55E-02
   148 Broy./Diag. 0.10E+00    5.3     0.17135975      -150.1687198912 -5.54E-02
   149 Broy./Diag. 0.10E+00    5.3     0.13220401      -150.1899583059 -2.12E-02
   150 Broy./Diag. 0.10E+00    5.4     0.20041699      -150.1289965518  6.10E-02
   151 Broy./Diag. 0.10E+00    5.4     0.03980668      -150.1552114094 -2.62E-02
   152 Broy./Diag. 0.10E+00    5.3     0.02049964      -150.1430762967  1.21E-02
   153 Broy./Diag. 0.10E+00    5.4     0.19738254      -150.0909599289  5.21E-02
   154 Broy./Diag. 0.10E+00    5.4     0.19350471      -150.0647862661  2.62E-02
   155 Broy./Diag. 0.10E+00    5.3     0.12294906      -150.0536411385  1.11E-02
   156 Broy./Diag. 0.10E+00    5.3     0.07050602      -150.0555715461 -1.93E-03
   157 Broy./Diag. 0.10E+00    5.4     0.19172982      -150.1899432111 -1.34E-01
   158 Broy./Diag. 0.10E+00    5.3     0.27368472      -150.3101782470 -1.20E-01
   159 Broy./Diag. 0.10E+00    5.3     0.17083841      -150.3809949338 -7.08E-02
   160 Broy./Diag. 0.10E+00    5.3     0.03885140      -150.3907187173 -9.72E-03
   161 Broy./Diag. 0.10E+00    5.4     0.20902002      -150.3046981261  8.60E-02
   162 Broy./Diag. 0.10E+00    5.3     0.27652435      -150.3142306584 -9.53E-03
   163 Broy./Diag. 0.10E+00    5.3     0.15563398      -150.3399122657 -2.57E-02
   164 Broy./Diag. 0.10E+00    5.3     0.11983258      -150.3278561982  1.21E-02
   165 Broy./Diag. 0.10E+00    5.3     0.11429424      -150.2647892045  6.31E-02
   166 Broy./Diag. 0.10E+00    5.3     0.15777044      -150.1623522552  1.02E-01
   167 Broy./Diag. 0.10E+00    5.3     0.15641802      -150.1353680796  2.70E-02
   168 Broy./Diag. 0.10E+00    5.4     0.27148080      -149.9980171909  1.37E-01
   169 Broy./Diag. 0.10E+00    5.4     0.15761085      -150.0078525599 -9.84E-03
   170 Broy./Diag. 0.10E+00    5.4     0.04503797      -150.0928008105 -8.49E-02
   171 Broy./Diag. 0.10E+00    5.3     0.01160768      -150.1261441041 -3.33E-02
   172 Broy./Diag. 0.10E+00    5.3     0.00638433      -150.1397213831 -1.36E-02
   173 Broy./Diag. 0.10E+00    5.3     0.13891809      -150.2243906244 -8.47E-02
   174 Broy./Diag. 0.10E+00    5.4     0.11393973      -150.3260860958 -1.02E-01
   175 Broy./Diag. 0.10E+00    5.3     0.25271433      -150.1128657955  2.13E-01
   176 Broy./Diag. 0.10E+00    5.3     0.19504539      -149.9451785801  1.68E-01
   177 Broy./Diag. 0.10E+00    5.4     0.09933566      -149.9010075001  4.42E-02
[...]
   433 Broy./Diag. 0.10E+00    5.5     0.00116896      -149.9101132545  1.38E-03
   434 Broy./Diag. 0.10E+00    5.4     0.00122899      -149.9065316290  3.58E-03
   435 Broy./Diag. 0.10E+00    5.4     0.00203197      -149.9043576333  2.17E-03
   436 Broy./Diag. 0.10E+00    5.4     0.00159554      -149.9018862340  2.47E-03
   437 Broy./Diag. 0.10E+00    5.4     0.00135007      -149.8996228700  2.26E-03
   438 Broy./Diag. 0.10E+00    5.5     0.00157369      -149.8987333076  8.90E-04
   439 Broy./Diag. 0.10E+00    5.4     0.00042406      -149.8985504265  1.83E-04
   440 Broy./Diag. 0.10E+00    5.4     0.00083348      -149.8982093817  3.41E-04
   441 Broy./Diag. 0.10E+00    5.6     0.00081852      -149.8980432164  1.66E-04
   442 Broy./Diag. 0.10E+00    5.5     0.00069448      -149.8981028040 -5.96E-05
   443 Broy./Diag. 0.10E+00    5.4     0.00028893      -149.8980118475  9.10E-05
   444 Broy./Diag. 0.10E+00    5.4     0.00045040      -149.8978007643  2.11E-04
   445 Broy./Diag. 0.10E+00    5.4     0.00038914      -149.8977079665  9.28E-05
   446 Broy./Diag. 0.10E+00    5.4     0.00021869      -149.8978561945 -1.48E-04
   447 Broy./Diag. 0.10E+00    5.4     0.00015305      -149.8981828779 -3.27E-04
   448 Broy./Diag. 0.10E+00    5.4     0.00018141      -149.8984744878 -2.92E-04
   449 Broy./Diag. 0.10E+00    5.4     0.00012176      -149.8984055763  6.89E-05
   450 Broy./Diag. 0.10E+00    5.4     0.00012322      -149.8982349027  1.71E-04
   451 Broy./Diag. 0.10E+00    5.4     0.00013627      -149.8981065417  1.28E-04
   452 Broy./Diag. 0.10E+00    5.5     0.00011495      -149.8980530372  5.35E-05
   453 Broy./Diag. 0.10E+00    5.4     0.00008481      -149.8980600507 -7.01E-06
   454 Broy./Diag. 0.10E+00    5.5     0.00006900      -149.8980694744 -9.42E-06
   455 Broy./Diag. 0.10E+00    5.4     0.00006936      -149.8980454176  2.41E-05
   456 Broy./Diag. 0.10E+00    5.4     0.00022698      -149.8979829364  6.25E-05
   457 Broy./Diag. 0.10E+00    5.4     0.00026207      -149.8979663011  1.66E-05
   458 Broy./Diag. 0.10E+00    5.4     0.00033407      -149.8979799936 -1.37E-05
   459 Broy./Diag. 0.10E+00    5.4     0.00055026      -149.8979661559  1.38E-05
   460 Broy./Diag. 0.10E+00    5.4     0.00085235      -149.8980002592 -3.41E-05
   461 Broy./Diag. 0.10E+00    5.4     0.00131162      -149.8980057328 -5.47E-06
   462 Broy./Diag. 0.10E+00    5.4     0.00200305      -149.8979874059  1.83E-05
   463 Broy./Diag. 0.10E+00    5.4     0.00306520      -149.8979735793  1.38E-05
   464 Broy./Diag. 0.10E+00    5.4     0.00469141      -149.8979666962  6.88E-06
   465 Broy./Diag. 0.10E+00    5.5     0.00749540      -149.8978871750  7.95E-05
   466 Broy./Diag. 0.10E+00    5.4     0.01180873      -149.8978608923  2.63E-05
   467 Broy./Diag. 0.10E+00    5.4     0.01861296      -149.8978972173 -3.63E-05
   468 Broy./Diag. 0.10E+00    5.4     0.02943140      -149.8978003099  9.69E-05
   469 Broy./Diag. 0.10E+00    5.4     0.04621703      -149.8976968443  1.03E-04
   470 Broy./Diag. 0.10E+00    5.4     0.07116742      -149.8971844247  5.12E-04
   471 Broy./Diag. 0.10E+00    5.4     0.10393520      -149.8958408992  1.34E-03
   472 Broy./Diag. 0.10E+00    5.4     0.13418145      -149.8929713051  2.87E-03
   473 Broy./Diag. 0.10E+00    5.4     0.13807086      -149.8873164955  5.65E-03
   474 Broy./Diag. 0.10E+00    5.4     0.14838023      -149.8778431015  9.47E-03
   475 Broy./Diag. 0.10E+00    5.4     0.16081490      -149.8656799961  1.22E-02
   476 Broy./Diag. 0.10E+00    5.4     0.13996935      -149.8537445249  1.19E-02
   477 Broy./Diag. 0.10E+00    5.4     0.10659830      -149.8443493430  9.40E-03
   478 Broy./Diag. 0.10E+00    5.4     0.07549175      -149.8381955190  6.15E-03
   479 Broy./Diag. 0.10E+00    5.4     0.05168342      -149.8345299875  3.67E-03
   480 Broy./Diag. 0.10E+00    5.4     0.03508924      -149.8324662188  2.06E-03
   481 Broy./Diag. 0.10E+00    5.5     0.02865797      -149.8318606926  6.06E-04
   482 Broy./Diag. 0.10E+00    5.4     0.02517650      -149.8357855716 -3.92E-03
   483 Broy./Diag. 0.10E+00    5.4     0.02676036      -149.8542515587 -1.85E-02
   484 Broy./Diag. 0.10E+00    5.4     0.02177678      -149.8581317698 -3.88E-03
   485 Broy./Diag. 0.10E+00    5.4     0.02766258      -149.8870630253 -2.89E-02
   486 Broy./Diag. 0.10E+00    5.5     0.02966900      -149.9506534882 -6.36E-02

 *** WARNING in pw/ps_wavelet_methods.F:238 :: Density non-zero on the ***
 *** edges of the unit cell: wrong results in WAVELET solver           ***

   487 Broy./Diag. 0.10E+00    5.4     0.05073135      -150.0906554245 -1.40E-01

 *** WARNING in pw/ps_wavelet_methods.F:238 :: Density non-zero on the ***
 *** edges of the unit cell: wrong results in WAVELET solver           ***

   488 Broy./Diag. 0.10E+00    5.4     0.06981972      -150.2181688927 -1.28E-01

 *** WARNING in pw/ps_wavelet_methods.F:238 :: Density non-zero on the ***
 *** edges of the unit cell: wrong results in WAVELET solver           ***

   489 Broy./Diag. 0.10E+00    5.4     0.09256497      -150.1681406539  5.00E-02

 *** WARNING in pw/ps_wavelet_methods.F:238 :: Density non-zero on the ***
 *** edges of the unit cell: wrong results in WAVELET solver           ***

   490 Broy./Diag. 0.10E+00    5.4     0.14948412      -150.1350686478  3.31E-02

 *** WARNING in pw/ps_wavelet_methods.F:238 :: Density non-zero on the ***
 *** edges of the unit cell: wrong results in WAVELET solver           ***

   491 Broy./Diag. 0.10E+00    5.4     0.11256777      -150.0722717690  6.28E-02
   492 Broy./Diag. 0.10E+00    5.5     0.07739281      -149.9136237564  1.59E-01

 *** WARNING in pw/ps_wavelet_methods.F:238 :: Density non-zero on the ***
 *** edges of the unit cell: wrong results in WAVELET solver           ***

   493 Broy./Diag. 0.10E+00    5.4     0.08271457      -150.0006301923 -8.70E-02

 *** WARNING in pw/ps_wavelet_methods.F:238 :: Density non-zero on the ***
 *** edges of the unit cell: wrong results in WAVELET solver           ***

   494 Broy./Diag. 0.10E+00    5.4     0.08554826      -150.0469083464 -4.63E-02
   495 Broy./Diag. 0.10E+00    5.3     0.03526558      -150.1261714780 -7.93E-02
   496 Broy./Diag. 0.10E+00    5.4     0.01548026      -150.0908472399  3.53E-02
   497 Broy./Diag. 0.10E+00    5.5     0.09960005      -150.1115164927 -2.07E-02

 *** WARNING in pw/ps_wavelet_methods.F:238 :: Density non-zero on the ***
 *** edges of the unit cell: wrong results in WAVELET solver           ***

   498 Broy./Diag. 0.10E+00    5.4     0.10704069      -150.0998591759  1.17E-02
   499 Broy./Diag. 0.10E+00    5.4     0.05867067      -150.0467284768  5.31E-02
   500 Broy./Diag. 0.10E+00    5.4     0.03760514      -150.1345239481 -8.78E-02

  Leaving inner SCF loop after reaching   500 steps.


  Electronic density on regular grids:        -12.1434712841        3.8565287159
  Core density on regular grids:               16.0000000000        0.0000000000
  Hard and soft densities (Lebedev):         -101.1160593389      -97.2571034626
  Total Rho_soft + Rho1_hard - Rho1_soft      -16.0024271604
  Total charge density (r-space):              -0.0024271604
  Total Rho_soft + Rho0_soft (g-space):        -0.0024274671

  Overlap energy of the core charge distribution:               0.00000000200246
  Self energy of the core charge distribution:               -145.82024045573709
  Core Hamiltonian energy:                                    -13.27011449477870
  Hartree energy:                                              26.47170863085532
  Exchange-correlation energy:                                 -5.46092656273134
  Hartree-Fock Exchange energy:                                -4.04353488828651

  GAPW| Exc from hard and soft atomic rho1:                    -7.44279634883000
  GAPW| local Eh = 1 center integrals:                         -0.56861983058934

  Total energy:                                              -150.13452394809519

 *******************************************************************************
 *   ___                                                                       *
 *  /   \                                                                      *
 * [ABORT]                                                                     *
 *  \___/     SCF run NOT converged. To continue the calculation regardless,   *
 *    |             please set the keyword IGNORE_CONVERGENCE_FAILURE.         *
 *  O/|                                                                        *
 * /| |                                                                        *
 * / \                                                            qs_scf.F:611 *
 *******************************************************************************


 ===== Routine Calling Stack ===== 

            3 scf_env_do_scf
            2 qs_energies
            1 CP2K

 *******************************************************************************
 *   ___                                                                       *
 *  /   \                                                                      *
 * [ABORT]                                                                     *
 *  \___/     SCF run NOT converged. To continue the calculation regardless,   *
 *    |             please set the keyword IGNORE_CONVERGENCE_FAILURE.         *
 *  O/|                                                                        *
 * /| |                                                                        *
 * / \                                                            qs_scf.F:611 *
 *******************************************************************************


 ===== Routine Calling Stack ===== 

            3 scf_env_do_scf
            2 qs_energies
            1 CP2K

 *******************************************************************************
 *   ___                                                                       *
 *  /   \                                                                      *
 * [ABORT]                                                                     *
 *  \___/     SCF run NOT converged. To continue the calculation regardless,   *
 *    |             please set the keyword IGNORE_CONVERGENCE_FAILURE.         *
 *  O/|                                                                        *
 * /| |                                                                        *
 * / \                                                            qs_scf.F:611 *
 *******************************************************************************


 ===== Routine Calling Stack ===== 

            3 scf_env_do_scf
            2 qs_energies
            1 CP2K

 *******************************************************************************
 *   ___                                                                       *
 *  /   \                                                                      *
 * [ABORT]                                                                     *
 *  \___/     SCF run NOT converged. To continue the calculation regardless,   *
 *    |             please set the keyword IGNORE_CONVERGENCE_FAILURE.         *
 *  O/|                                                                        *
 * /| |                                                                        *
 * / \                                                            qs_scf.F:611 *
 *******************************************************************************


 ===== Routine Calling Stack ===== 

            3 scf_env_do_scf
            2 qs_energies
            1 CP2K

 *******************************************************************************
 *   ___                                                                       *
 *  /   \                                                                      *
 * [ABORT]                                                                     *
 *  \___/     SCF run NOT converged. To continue the calculation regardless,   *
 *    |             please set the keyword IGNORE_CONVERGENCE_FAILURE.         *
 *  O/|                                                                        *
 * /| |                                                                        *
 * / \                                                            qs_scf.F:611 *
 *******************************************************************************


 ===== Routine Calling Stack ===== 

            3 scf_env_do_scf
            2 qs_energies
            1 CP2K

 *******************************************************************************
 *   ___                                                                       *
 *  /   \                                                                      *
 * [ABORT]                                                                     *
 *  \___/     SCF run NOT converged. To continue the calculation regardless,   *
 *    |             please set the keyword IGNORE_CONVERGENCE_FAILURE.         *
 *  O/|                                                                        *
 * /| |                                                                        *
 * / \                                                            qs_scf.F:611 *
 *******************************************************************************


 ===== Routine Calling Stack ===== 

            3 scf_env_do_scf
            2 qs_energies
            1 CP2K

 *******************************************************************************
 *   ___                                                                       *
 *  /   \                                                                      *
 * [ABORT]                                                                     *
 *  \___/     SCF run NOT converged. To continue the calculation regardless,   *
 *    |             please set the keyword IGNORE_CONVERGENCE_FAILURE.         *
 *  O/|                                                                        *
 * /| |                                                                        *
 * / \                                                            qs_scf.F:611 *
 *******************************************************************************


 ===== Routine Calling Stack ===== 

            3 scf_env_do_scf
            2 qs_energies
            1 CP2K

 *******************************************************************************
 *   ___                                                                       *
 *  /   \                                                                      *
 * [ABORT]                                                                     *
 *  \___/     SCF run NOT converged. To continue the calculation regardless,   *
 *    |             please set the keyword IGNORE_CONVERGENCE_FAILURE.         *
 *  O/|                                                                        *
 * /| |                                                                        *
 * / \                                                            qs_scf.F:611 *
 *******************************************************************************


 ===== Routine Calling Stack ===== 

            3 scf_env_do_scf
            2 qs_energies
            1 CP2K

 *******************************************************************************
 *   ___                                                                       *
 *  /   \                                                                      *
 * [ABORT]                                                                     *
 *  \___/     SCF run NOT converged. To continue the calculation regardless,   *
 *    |             please set the keyword IGNORE_CONVERGENCE_FAILURE.         *
 *  O/|                                                                        *
 * /| |                                                                        *
 * / \                                                            qs_scf.F:611 *
 *******************************************************************************


 ===== Routine Calling Stack ===== 

            3 scf_env_do_scf
            2 qs_energies
            1 CP2K

 *******************************************************************************
 *   ___                                                                       *
 *  /   \                                                                      *
 * [ABORT]                                                                     *
 *  \___/     SCF run NOT converged. To continue the calculation regardless,   *
 *    |             please set the keyword IGNORE_CONVERGENCE_FAILURE.         *
 *  O/|                                                                        *
 * /| |                                                                        *
 * / \                                                            qs_scf.F:611 *
 *******************************************************************************


 ===== Routine Calling Stack ===== 

            3 scf_env_do_scf
            2 qs_energies
            1 CP2K

 *******************************************************************************
 *   ___                                                                       *
 *  /   \                                                                      *
 * [ABORT]                                                                     *
 *  \___/     SCF run NOT converged. To continue the calculation regardless,   *
 *    |             please set the keyword IGNORE_CONVERGENCE_FAILURE.         *
 *  O/|                                                                        *
 * /| |                                                                        *
 * / \                                                            qs_scf.F:611 *
 *******************************************************************************


 ===== Routine Calling Stack ===== 

            3 scf_env_do_scf
            2 qs_energies
            1 CP2K

 *******************************************************************************
 *   ___                                                                       *
 *  /   \                                                                      *
 * [ABORT]                                                                     *
 *  \___/     SCF run NOT converged. To continue the calculation regardless,   *
 *    |             please set the keyword IGNORE_CONVERGENCE_FAILURE.         *
 *  O/|                                                                        *
 * /| |                                                                        *
 * / \                                                            qs_scf.F:611 *
 *******************************************************************************


 ===== Routine Calling Stack ===== 

            3 scf_env_do_scf
            2 qs_energies
            1 CP2K

 *******************************************************************************
 *   ___                                                                       *
 *  /   \                                                                      *
 * [ABORT]                                                                     *
 *  \___/     SCF run NOT converged. To continue the calculation regardless,   *
 *    |             please set the keyword IGNORE_CONVERGENCE_FAILURE.         *
 *  O/|                                                                        *
 * /| |                                                                        *
 * / \                                                            qs_scf.F:611 *
 *******************************************************************************


 ===== Routine Calling Stack ===== 

            3 scf_env_do_scf
            2 qs_energies
            1 CP2K
