 DBCSR| CPU Multiplication driver                                           BLAS (U)
 DBCSR| Multrec recursion limit                                              512 (U)
 DBCSR| Multiplication stack size                                           1000 (D)
 DBCSR| Maximum elements for images                                    UNLIMITED (U)
 DBCSR| Multiplicative factor virtual images                                   1 (U)
 DBCSR| Use multiplication densification                                       T (D)
 DBCSR| Multiplication size stacks                                             3 (U)
 DBCSR| Use memory pool for CPU allocation                                     F (U)
 DBCSR| Number of 3D layers                                               SINGLE (U)
 DBCSR| Use MPI memory allocation                                              F (U)
 DBCSR| Use RMA algorithm                                                      F (U)
 DBCSR| Use Communication thread                                               T (U)
 DBCSR| Communication thread load                                             75 (D)
 DBCSR| MPI: My process id                                                     0
 DBCSR| MPI: Number of processes                                              24
 DBCSR| OMP: Current number of threads                                         4
 DBCSR| OMP: Max number of threads                                             4
 DBCSR| Split modifier for TAS multiplication algorithm                  1.0E+00 (U)


  **** **** ******  **  PROGRAM STARTED AT               2025-03-08 02:54:28.106
 ***** ** ***  *** **   PROGRAM STARTED ON                          i02r08c04s04
 **    ****   ******    PROGRAM STARTED BY                               di38fab
 ***** **    ** ** **   PROGRAM PROCESS ID                               2620590
  **** **  *******  **  PROGRAM STARTED IN /hppfs/scratch/04/di38fab/05_MOL/W4-1
                                           1+ALK/o2/DZVP

 CP2K| version string:                 CP2K version 2025.1 (Development Version)
 CP2K| source code revision number:                                  git:47877ba
 CP2K| cp2kflags: omp libint fftw3 libxc parallel scalapack max_contr=4         
 CP2K| is freely available from                            https://www.cp2k.org/
 CP2K| Program compiled at                          Thu Feb 20 16:00:34 CET 2025
 CP2K| Program compiled on                                               login04
 CP2K| Program compiled for                                        Supermuc-foss
 CP2K| Data directory path          /hppfs/work/pn36zo/di38fab/newcp2k/cp2k/data
 CP2K| Input file name                                                    GW.inp

 GLOBAL| Force Environment number                                              1
 GLOBAL| Basis set file name            /hppfs/scratch/04/di38fab/04_TMD/BASIS_A
 GLOBAL| Potential file name            /hppfs/work/pn36zo/di38fab/cp2k/data/ALL
 GLOBAL| MM Potential file name                                     MM_POTENTIAL
 GLOBAL| Coordinate file name                                      __STD_INPUT__
 GLOBAL| Method name                                                        CP2K
 GLOBAL| Project name                                                       MoS2
 GLOBAL| Run type                                                         ENERGY
 GLOBAL| FFT library                                                       FFTW3
 GLOBAL| Diagonalization library                                       ScaLAPACK
 GLOBAL| DGEMM library                                                      BLAS
 GLOBAL| Orthonormality check for eigenvectors                          DISABLED
 GLOBAL| Matrix multiplication library                                 ScaLAPACK
 GLOBAL| All-to-all communication in single precision                          F
 GLOBAL| FFTs using library dependent lengths                                  F
 GLOBAL| Grid backend                                                       AUTO
 GLOBAL| Global print level                                               MEDIUM
 GLOBAL| MPI I/O enabled                                                       T
 GLOBAL| Total number of message passing processes                            24
 GLOBAL| Number of threads for this process                                    4
 GLOBAL| This output is from process                                           0
 GLOBAL| OpenMP stack size per thread (OMP_STACKSIZE)                    default
 GLOBAL| CPU model name             Intel(R) Xeon(R) Platinum 8174 CPU @ 3.10GHz

 MEMORY| system memory details [Kb]
 MEMORY|                        rank 0           min           max       average
 MEMORY| MemTotal             98436664      98436664      98436736      98436700
 MEMORY| MemFree              83988712      83988712      84274564      84131638
 MEMORY| Buffers                     0             0             0             0
 MEMORY| Cached                2393536       2390240       2393536       2391888
 MEMORY| Slab                  1223572       1160212       1223572       1191892
 MEMORY| SReclaimable           263688        254156        263688        258922
 MEMORY| MemLikelyFree        86645936      86645936      86918960      86782448


 *** Fundamental physical constants (SI units) ***

 *** Literature: B. J. Mohr and B. N. Taylor,
 ***             CODATA recommended values of the fundamental physical
 ***             constants: 2006, Web Version 5.1
 ***             http://physics.nist.gov/constants

 Speed of light in vacuum [m/s]                             2.99792458000000E+08
 Magnetic constant or permeability of vacuum [N/A**2]       1.25663706143592E-06
 Electric constant or permittivity of vacuum [F/m]          8.85418781762039E-12
 Planck constant (h) [J*s]                                  6.62606896000000E-34
 Planck constant (h-bar) [J*s]                              1.05457162825177E-34
 Elementary charge [C]                                      1.60217648700000E-19
 Electron mass [kg]                                         9.10938215000000E-31
 Electron g factor [ ]                                     -2.00231930436220E+00
 Proton mass [kg]                                           1.67262163700000E-27
 Fine-structure constant                                    7.29735253760000E-03
 Rydberg constant [1/m]                                     1.09737315685270E+07
 Avogadro constant [1/mol]                                  6.02214179000000E+23
 Boltzmann constant [J/K]                                   1.38065040000000E-23
 Atomic mass unit [kg]                                      1.66053878200000E-27
 Bohr radius [m]                                            5.29177208590000E-11

 *** Conversion factors ***

 [u] -> [a.u.]                                              1.82288848426455E+03
 [Angstrom] -> [Bohr] = [a.u.]                              1.88972613288564E+00
 [a.u.] = [Bohr] -> [Angstrom]                              5.29177208590000E-01
 [a.u.] -> [s]                                              2.41888432650478E-17
 [a.u.] -> [fs]                                             2.41888432650478E-02
 [a.u.] -> [J]                                              4.35974393937059E-18
 [a.u.] -> [N]                                              8.23872205491840E-08
 [a.u.] -> [K]                                              3.15774647902944E+05
 [a.u.] -> [kJ/mol]                                         2.62549961709828E+03
 [a.u.] -> [kcal/mol]                                       6.27509468713739E+02
 [a.u.] -> [Pa]                                             2.94210107994716E+13
 [a.u.] -> [bar]                                            2.94210107994716E+08
 [a.u.] -> [atm]                                            2.90362800883016E+08
 [a.u.] -> [eV]                                             2.72113838565563E+01
 [a.u.] -> [Hz]                                             6.57968392072181E+15
 [a.u.] -> [1/cm] (wave numbers)                            2.19474631370540E+05
 [a.u./Bohr**2] -> [1/cm]                                   5.14048714338585E+03
 

 CELL_TOP| Volume [angstrom^3]:                                     27000.000000
 CELL_TOP| Vector a [angstrom    30.000     0.000     0.000   |a| =    30.000000
 CELL_TOP| Vector b [angstrom     0.000    30.000     0.000   |b| =    30.000000
 CELL_TOP| Vector c [angstrom     0.000     0.000    30.000   |c| =    30.000000
 CELL_TOP| Angle (b,c), alpha [degree]:                                90.000000
 CELL_TOP| Angle (a,c), beta  [degree]:                                90.000000
 CELL_TOP| Angle (a,b), gamma [degree]:                                90.000000
 CELL_TOP| Numerically orthorhombic:                                         YES
 CELL_TOP| Periodicity                                                      NONE

 GENERATE|  Preliminary Number of Bonds generated:                             0
 GENERATE|  Achieved consistency in connectivity generation.

 CELL| Volume [angstrom^3]:                                         27000.000000
 CELL| Vector a [angstrom]:      30.000     0.000     0.000   |a| =    30.000000
 CELL| Vector b [angstrom]:       0.000    30.000     0.000   |b| =    30.000000
 CELL| Vector c [angstrom]:       0.000     0.000    30.000   |c| =    30.000000
 CELL| Angle (b,c), alpha [degree]:                                    90.000000
 CELL| Angle (a,c), beta  [degree]:                                    90.000000
 CELL| Angle (a,b), gamma [degree]:                                    90.000000
 CELL| Numerically orthorhombic:                                             YES
 CELL| Periodicity                                                          NONE

 CELL_REF| Volume [angstrom^3]:                                     27000.000000
 CELL_REF| Vector a [angstrom    30.000     0.000     0.000   |a| =    30.000000
 CELL_REF| Vector b [angstrom     0.000    30.000     0.000   |b| =    30.000000
 CELL_REF| Vector c [angstrom     0.000     0.000    30.000   |c| =    30.000000
 CELL_REF| Angle (b,c), alpha [degree]:                                90.000000
 CELL_REF| Angle (a,c), beta  [degree]:                                90.000000
 CELL_REF| Angle (a,b), gamma [degree]:                                90.000000
 CELL_REF| Numerically orthorhombic:                                         YES
 CELL_REF| Periodicity                                                      NONE

 *******************************************************************************
 *******************************************************************************
 **                                                                           **
 **     #####                         ##              ##                      **
 **    ##   ##            ##          ##              ##                      **
 **   ##     ##                       ##            ######                    **
 **   ##     ##  ##   ##  ##   #####  ##  ##   ####   ##    #####    #####    **
 **   ##     ##  ##   ##  ##  ##      ## ##   ##      ##   ##   ##  ##   ##   **
 **   ##  ## ##  ##   ##  ##  ##      ####     ###    ##   ######   ######    **
 **    ##  ###   ##   ##  ##  ##      ## ##      ##   ##   ##       ##        **
 **     #######   #####   ##   #####  ##  ##  ####    ##    #####   ##        **
 **           ##                                                    ##        **
 **                                                                           **
 **                                                ... make the atoms dance   **
 **                                                                           **
 **            Copyright (C) by CP2K developers group (2000-2025)             **
 **                      J. Chem. Phys. 152, 194103 (2020)                    **
 **                                                                           **
 *******************************************************************************

 DFT| Spin restricted Kohn-Sham (RKS) calculation                            RKS
 DFT| Multiplicity                                                             1
 DFT| Number of spin states                                                    1
 DFT| Charge                                                                   0
 DFT| Self-interaction correction (SIC)                                       NO
 DFT| Cutoffs: density                                              1.000000E-10
 DFT|          gradient                                             1.000000E-10
 DFT|          tau                                                  1.000000E-10
 DFT|          cutoff_smoothing_range                               0.000000E+00
 DFT| XC density smoothing                                                  NONE
 DFT| XC derivatives                                                          PW

 FUNCTIONAL| PBE:
 FUNCTIONAL| J.P.Perdew, K.Burke, M.Ernzerhof, Phys. Rev. Letter, vol. 77, n 18,
 FUNCTIONAL|  pp. 3865-3868, (1996)sx=0.750sc=1.000{spin unpolarized}           


 QS| Method:                                                                GAPW
 QS| Density plane wave grid type                        NON-SPHERICAL FULLSPACE
 QS| Number of grid levels:                                                    4
 QS| Density cutoff [a.u.]:                                                250.0
 QS| Multi grid cutoff [a.u.]: 1) grid level                               250.0
 QS|                           2) grid level                                83.3
 QS|                           3) grid level                                27.8
 QS|                           4) grid level                                 9.3
 QS| Grid level progression factor:                                          3.0
 QS| Relative density cutoff [a.u.]:                                        50.0
 QS| Interaction thresholds: eps_pgf_orb:                                1.0E-12
 QS|                         eps_filter_matrix:                          0.0E+00
 QS|                         eps_core_charge:                            1.0E-14
 QS|                         eps_rho_gspace:                             1.0E-12
 QS|                         eps_rho_rspace:                             1.0E-12
 QS|                         eps_gvg_rspace:                             1.0E-06
 QS|                         eps_ppl:                                    1.0E-02
 QS|                         eps_ppnl:                                   1.0E-08
 QS| GAPW|      One center basis from orbital basis primitives
 QS| GAPW|                   eps_fit:                                    1.0E-04
 QS| GAPW|                   eps_iso:                                    1.0E-12
 QS| GAPW|                   eps_svd:                                    1.0E-08
 QS| GAPW|                   eps_cpc:                                    1.0E-12
 QS| GAPW|   atom-r-grid: quadrature:                                     GC_LOG
 QS| GAPW|      atom-s-grid:  max l :                                          6
 QS| GAPW|      max_l_rho0 :                                                   2


 ATOMIC KIND INFORMATION

  1. Atomic kind: O                                     Number of atoms:       2

     Orbital Basis Set                                        aug-DZVP-MOLOPT-ae

       Number of orbital shell sets:                                           2
       Number of orbital shells:                                              10
       Number of primitive Cartesian functions:                               12
       Number of Cartesian basis functions:                                   35
       Number of spherical basis functions:                                   30
       Norm type:                                                              2

       Normalised Cartesian orbitals:

                        Set   Shell   Orbital            Exponent    Coefficient

                          1       1    2s                0.090000       0.120905
                                                         0.191936      -0.019521
                                                         0.750068       0.059582
                                                         2.907977       0.000000
                                                        16.368686       0.000000

                          1       2    3px               0.090000       0.000000
                                                         0.191936       0.023686
                                                         0.750068       0.626550
                                                         2.907977       2.082711
                                                        16.368686       3.596544
                          1       2    3py               0.090000       0.000000
                                                         0.191936       0.023686
                                                         0.750068       0.626550
                                                         2.907977       2.082711
                                                        16.368686       3.596544
                          1       2    3pz               0.090000       0.000000
                                                         0.191936       0.023686
                                                         0.750068       0.626550
                                                         2.907977       2.082711
                                                        16.368686       3.596544

                          1       3    4px               0.090000       0.000000
                                                         0.191936       0.196557
                                                         0.750068      -0.157257
                                                         2.907977      -0.566756
                                                        16.368686      -1.323495
                          1       3    4py               0.090000       0.000000
                                                         0.191936       0.196557
                                                         0.750068      -0.157257
                                                         2.907977      -0.566756
                                                        16.368686      -1.323495
                          1       3    4pz               0.090000       0.000000
                                                         0.191936       0.196557
                                                         0.750068      -0.157257
                                                         2.907977      -0.566756
                                                        16.368686      -1.323495

                          1       4    5px               0.090000       0.020606
                                                         0.191936       0.124186
                                                         0.750068       0.098287
                                                         2.907977       0.000000
                                                        16.368686       0.000000
                          1       4    5py               0.090000       0.020606
                                                         0.191936       0.124186
                                                         0.750068       0.098287
                                                         2.907977       0.000000
                                                        16.368686       0.000000
                          1       4    5pz               0.090000       0.020606
                                                         0.191936       0.124186
                                                         0.750068       0.098287
                                                         2.907977       0.000000
                                                        16.368686       0.000000

                          1       5    4dx2              0.090000       0.000000
                                                         0.191936       0.030414
                                                         0.750068       0.724129
                                                         2.907977       1.586204
                                                        16.368686       1.487256
                          1       5    4dxy              0.090000       0.000000
                                                         0.191936       0.052678
                                                         0.750068       1.254227
                                                         2.907977       2.747386
                                                        16.368686       2.576002
                          1       5    4dxz              0.090000       0.000000
                                                         0.191936       0.052678
                                                         0.750068       1.254227
                                                         2.907977       2.747386
                                                        16.368686       2.576002
                          1       5    4dy2              0.090000       0.000000
                                                         0.191936       0.030414
                                                         0.750068       0.724129
                                                         2.907977       1.586204
                                                        16.368686       1.487256
                          1       5    4dyz              0.090000       0.000000
                                                         0.191936       0.052678
                                                         0.750068       1.254227
                                                         2.907977       2.747386
                                                        16.368686       2.576002
                          1       5    4dz2              0.090000       0.000000
                                                         0.191936       0.030414
                                                         0.750068       0.724129
                                                         2.907977       1.586204
                                                        16.368686       1.487256

                          1       6    5dx2              0.090000      -0.010181
                                                         0.191936       0.018957
                                                         0.750068       0.933882
                                                         2.907977       0.008471
                                                        16.368686       0.000000
                          1       6    5dxy              0.090000      -0.017634
                                                         0.191936       0.032834
                                                         0.750068       1.617531
                                                         2.907977       0.014671
                                                        16.368686       0.000000
                          1       6    5dxz              0.090000      -0.017634
                                                         0.191936       0.032834
                                                         0.750068       1.617531
                                                         2.907977       0.014671
                                                        16.368686       0.000000
                          1       6    5dy2              0.090000      -0.010181
                                                         0.191936       0.018957
                                                         0.750068       0.933882
                                                         2.907977       0.008471
                                                        16.368686       0.000000
                          1       6    5dyz              0.090000      -0.017634
                                                         0.191936       0.032834
                                                         0.750068       1.617531
                                                         2.907977       0.014671
                                                        16.368686       0.000000
                          1       6    5dz2              0.090000      -0.010181
                                                         0.191936       0.018957
                                                         0.750068       0.933882
                                                         2.907977       0.008471
                                                        16.368686       0.000000

                          1       7    5fx3              0.090000       0.003073
                                                         0.191936       0.017866
                                                         0.750068       0.208981
                                                         2.907977      -1.809714
                                                        16.368686       0.000000
                          1       7    5fx2y             0.090000       0.006871
                                                         0.191936       0.039950
                                                         0.750068       0.467295
                                                         2.907977      -4.046643
                                                        16.368686       0.000000
                          1       7    5fx2z             0.090000       0.006871
                                                         0.191936       0.039950
                                                         0.750068       0.467295
                                                         2.907977      -4.046643
                                                        16.368686       0.000000
                          1       7    5fxy2             0.090000       0.006871
                                                         0.191936       0.039950
                                                         0.750068       0.467295
                                                         2.907977      -4.046643
                                                        16.368686       0.000000
                          1       7    5fxyz             0.090000       0.011901
                                                         0.191936       0.069196
                                                         0.750068       0.809378
                                                         2.907977      -7.008992
                                                        16.368686       0.000000
                          1       7    5fxz2             0.090000       0.006871
                                                         0.191936       0.039950
                                                         0.750068       0.467295
                                                         2.907977      -4.046643
                                                        16.368686       0.000000
                          1       7    5fy3              0.090000       0.003073
                                                         0.191936       0.017866
                                                         0.750068       0.208981
                                                         2.907977      -1.809714
                                                        16.368686       0.000000
                          1       7    5fy2z             0.090000       0.006871
                                                         0.191936       0.039950
                                                         0.750068       0.467295
                                                         2.907977      -4.046643
                                                        16.368686       0.000000
                          1       7    5fyz2             0.090000       0.006871
                                                         0.191936       0.039950
                                                         0.750068       0.467295
                                                         2.907977      -4.046643
                                                        16.368686       0.000000
                          1       7    5fz3              0.090000       0.003073
                                                         0.191936       0.017866
                                                         0.750068       0.208981
                                                         2.907977      -1.809714
                                                        16.368686       0.000000

                          2       1    1s                0.293338      -0.001581
                                                         0.941883       0.076823
                                                         5.946538      -1.128731
                                                        19.692604      -3.542509
                                                        76.928143      -3.538410
                                                       340.903325      -2.616043
                                                      2266.118827      -1.088852

                          2       2    2s                0.293338       0.124568
                                                         0.941883       0.386056
                                                         5.946538       0.132815
                                                        19.692604       0.350657
                                                        76.928143       1.294240
                                                       340.903325      -0.343055
                                                      2266.118827       0.730749

                          2       3    3s                0.293338       0.411906
                                                         0.941883      -0.735854
                                                         5.946538      -0.324434
                                                        19.692604      -0.580898
                                                        76.928143      -3.484318
                                                       340.903325       2.878168
                                                      2266.118827      -6.417666

     RI Auxiliary Basis Set             RI_aug-DZVP-MOLOPT-ae_N_RI_105_s_p_d_f_g

       Number of orbital shell sets:                                          25
       Number of orbital shells:                                              25
       Number of primitive Cartesian functions:                               25
       Number of Cartesian basis functions:                                  140
       Number of spherical basis functions:                                  105
       Norm type:                                                              2

       Normalised Cartesian orbitals:

                        Set   Shell   Orbital            Exponent    Coefficient

                          1       1    1s                0.195905       0.209867

                          2       1    8px               0.282486       0.293552
                          2       1    8py               0.282486       0.293552
                          2       1    8pz               0.282486       0.293552

                          3       1   19fx3              0.345874       0.135057
                          3       1   19fx2y             0.345874       0.301998
                          3       1   19fx2z             0.345874       0.301998
                          3       1   19fxy2             0.345874       0.301998
                          3       1   19fxyz             0.345874       0.523075
                          3       1   19fxz2             0.345874       0.301998
                          3       1   19fy3              0.345874       0.135057
                          3       1   19fy2z             0.345874       0.301998
                          3       1   19fyz2             0.345874       0.301998
                          3       1   19fz3              0.345874       0.135057

                          4       1   14dx2              0.352833       0.265862
                          4       1   14dxy              0.352833       0.460486
                          4       1   14dxz              0.352833       0.460486
                          4       1   14dy2              0.352833       0.265862
                          4       1   14dyz              0.352833       0.460486
                          4       1   14dz2              0.352833       0.265862

                          5       1    2s                0.406984       0.363156

                          6       1   23gx4              0.474501       0.143248
                          6       1   23gx3y             0.474501       0.378998
                          6       1   23gx3z             0.474501       0.378998
                          6       1   23gx2y2            0.474501       0.489285
                          6       1   23gx2yz            0.474501       0.847466
                          6       1   23gx2z2            0.474501       0.489285
                          6       1   23gxy3             0.474501       0.378998
                          6       1   23gxy2z            0.474501       0.847466
                          6       1   23gxyz2            0.474501       0.847466
                          6       1   23gxz3             0.474501       0.378998
                          6       1   23gy4              0.474501       0.143248
                          6       1   23gy3z             0.474501       0.378998
                          6       1   23gy2z2            0.474501       0.489285
                          6       1   23gyz3             0.474501       0.378998
                          6       1   23gz4              0.474501       0.143248

                          7       1   15dx2              0.644859       0.763787
                          7       1   15dxy              0.644859       1.322918
                          7       1   15dxz              0.644859       1.322918
                          7       1   15dy2              0.644859       0.763787
                          7       1   15dyz              0.644859       1.322918
                          7       1   15dz2              0.644859       0.763787

                          8       1    9px               0.756320       1.005362
                          8       1    9py               0.756320       1.005362
                          8       1    9pz               0.756320       1.005362

                          9       1   20fx3              0.872007       1.081744
                          9       1   20fx2y             0.872007       2.418854
                          9       1   20fx2z             0.872007       2.418854
                          9       1   20fxy2             0.872007       2.418854
                          9       1   20fxyz             0.872007       4.189578
                          9       1   20fxz2             0.872007       2.418854
                          9       1   20fy3              0.872007       1.081744
                          9       1   20fy2z             0.872007       2.418854
                          9       1   20fyz2             0.872007       2.418854
                          9       1   20fz3              0.872007       1.081744

                         10       1    3s                1.314883       0.875136

                         11       1   16dx2              1.471292       3.235062
                         11       1   16dxy              1.471292       5.603291
                         11       1   16dxz              1.471292       5.603291
                         11       1   16dy2              1.471292       3.235062
                         11       1   16dyz              1.471292       5.603291
                         11       1   16dz2              1.471292       3.235062

                         12       1   24gx4              1.481870       3.282186
                         12       1   24gx3y             1.481870       8.683848
                         12       1   24gx3z             1.481870       8.683848
                         12       1   24gx2y2            1.481870      11.210800
                         12       1   24gx2yz            1.481870      19.417675
                         12       1   24gx2z2            1.481870      11.210800
                         12       1   24gxy3             1.481870       8.683848
                         12       1   24gxy2z            1.481870      19.417675
                         12       1   24gxyz2            1.481870      19.417675
                         12       1   24gxz3             1.481870       8.683848
                         12       1   24gy4              1.481870       3.282186
                         12       1   24gy3z             1.481870       8.683848
                         12       1   24gy2z2            1.481870      11.210800
                         12       1   24gyz3             1.481870       8.683848
                         12       1   24gz4              1.481870       3.282186

                         13       1   10px               1.845532       3.066142
                         13       1   10py               1.845532       3.066142
                         13       1   10pz               1.845532       3.066142

                         14       1   21fx3              1.896547       6.214022
                         14       1   21fx2y             1.896547      13.894977
                         14       1   21fx2z             1.896547      13.894977
                         14       1   21fxy2             1.896547      13.894977
                         14       1   21fxyz             1.896547      24.066805
                         14       1   21fxz2             1.896547      13.894977
                         14       1   21fy3              1.896547       6.214022
                         14       1   21fy2z             1.896547      13.894977
                         14       1   21fyz2             1.896547      13.894977
                         14       1   21fz3              1.896547       6.214022

                         15       1   25gx4              3.188142      26.987590
                         15       1   25gx3y             3.188142      71.402451
                         15       1   25gx3z             3.188142      71.402451
                         15       1   25gx2y2            3.188142      92.180168
                         15       1   25gx2yz            3.188142     159.660734
                         15       1   25gx2z2            3.188142      92.180168
                         15       1   25gxy3             3.188142      71.402451
                         15       1   25gxy2z            3.188142     159.660734
                         15       1   25gxyz2            3.188142     159.660734
                         15       1   25gxz3             3.188142      71.402451
                         15       1   25gy4              3.188142      26.987590
                         15       1   25gy3z             3.188142      71.402451
                         15       1   25gy2z2            3.188142      92.180168
                         15       1   25gyz3             3.188142      71.402451
                         15       1   25gz4              3.188142      26.987590

                         16       1   17dx2              3.323344      13.463754
                         16       1   17dxy              3.323344      23.319907
                         16       1   17dxz              3.323344      23.319907
                         16       1   17dy2              3.323344      13.463754
                         16       1   17dyz              3.323344      23.319907
                         16       1   17dz2              3.323344      13.463754

                         17       1    4s                4.431255       2.176733

                         18       1   22fx3              4.942089      53.610918
                         18       1   22fx2y             4.942089     119.877658
                         18       1   22fx2z             4.942089     119.877658
                         18       1   22fxy2             4.942089     119.877658
                         18       1   22fxyz             4.942089     207.634194
                         18       1   22fxz2             4.942089     119.877658
                         18       1   22fy3              4.942089      53.610918
                         18       1   22fy2z             4.942089     119.877658
                         18       1   22fyz2             4.942089     119.877658
                         18       1   22fz3              4.942089      53.610918

                         19       1   11px               5.173565      11.121862
                         19       1   11py               5.173565      11.121862
                         19       1   11pz               5.173565      11.121862

                         20       1   18dx2              7.739965      59.115682
                         20       1   18dxy              7.739965     102.391365
                         20       1   18dxz              7.739965     102.391365
                         20       1   18dy2              7.739965      59.115682
                         20       1   18dyz              7.739965     102.391365
                         20       1   18dz2              7.739965      59.115682

                         21       1   12px              12.702310      34.181686
                         21       1   12py              12.702310      34.181686
                         21       1   12pz              12.702310      34.181686

                         22       1    5s               15.534269       5.576712

                         23       1   13px              30.897327     103.834394
                         23       1   13py              30.897327     103.834394
                         23       1   13pz              30.897327     103.834394

                         24       1    6s               51.005300      13.602589

                         25       1    7s              159.093541      31.926367

       Atomic covalent radius [Angstrom]:                                  0.730

       Atomic van der Waals radius [Angstrom]:                             1.520

     The atoms of this atomic kind are PAW atoms (GAPW):
       Hard Gaussian function radius:                                      1.512
       Rho0 radius:                                                        1.512
       Maximum GTO radius used for PAW projector construction:            24.566

     GAPW Soft Basis Set                                 aug-DZVP-MOLOPT-ae_soft

       Number of orbital shell sets:                                           2
       Number of orbital shells:                                              10
       Number of primitive Cartesian functions:                                6
       Number of Cartesian basis functions:                                   35
       Number of spherical basis functions:                                   30
       Norm type:                                                              2

       Normalised Cartesian orbitals:

                        Set   Shell   Orbital            Exponent    Coefficient

                          1       1    2s                0.090000       0.120905
                                                         0.191936      -0.019521
                                                         0.750068       0.059582
                                                         2.907977       0.000000

                          1       2    3px               0.090000       0.000000
                                                         0.191936       0.023686
                                                         0.750068       0.626550
                                                         2.907977       2.082711
                          1       2    3py               0.090000       0.000000
                                                         0.191936       0.023686
                                                         0.750068       0.626550
                                                         2.907977       2.082711
                          1       2    3pz               0.090000       0.000000
                                                         0.191936       0.023686
                                                         0.750068       0.626550
                                                         2.907977       2.082711

                          1       3    4px               0.090000       0.000000
                                                         0.191936       0.196557
                                                         0.750068      -0.157257
                                                         2.907977      -0.566756
                          1       3    4py               0.090000       0.000000
                                                         0.191936       0.196557
                                                         0.750068      -0.157257
                                                         2.907977      -0.566756
                          1       3    4pz               0.090000       0.000000
                                                         0.191936       0.196557
                                                         0.750068      -0.157257
                                                         2.907977      -0.566756

                          1       4    5px               0.090000       0.020606
                                                         0.191936       0.124186
                                                         0.750068       0.098287
                                                         2.907977       0.000000
                          1       4    5py               0.090000       0.020606
                                                         0.191936       0.124186
                                                         0.750068       0.098287
                                                         2.907977       0.000000
                          1       4    5pz               0.090000       0.020606
                                                         0.191936       0.124186
                                                         0.750068       0.098287
                                                         2.907977       0.000000

                          1       5    4dx2              0.090000       0.000000
                                                         0.191936       0.030414
                                                         0.750068       0.724129
                                                         2.907977       1.586204
                          1       5    4dxy              0.090000       0.000000
                                                         0.191936       0.052678
                                                         0.750068       1.254227
                                                         2.907977       2.747386
                          1       5    4dxz              0.090000       0.000000
                                                         0.191936       0.052678
                                                         0.750068       1.254227
                                                         2.907977       2.747386
                          1       5    4dy2              0.090000       0.000000
                                                         0.191936       0.030414
                                                         0.750068       0.724129
                                                         2.907977       1.586204
                          1       5    4dyz              0.090000       0.000000
                                                         0.191936       0.052678
                                                         0.750068       1.254227
                                                         2.907977       2.747386
                          1       5    4dz2              0.090000       0.000000
                                                         0.191936       0.030414
                                                         0.750068       0.724129
                                                         2.907977       1.586204

                          1       6    5dx2              0.090000      -0.010181
                                                         0.191936       0.018957
                                                         0.750068       0.933882
                                                         2.907977       0.008471
                          1       6    5dxy              0.090000      -0.017634
                                                         0.191936       0.032834
                                                         0.750068       1.617531
                                                         2.907977       0.014671
                          1       6    5dxz              0.090000      -0.017634
                                                         0.191936       0.032834
                                                         0.750068       1.617531
                                                         2.907977       0.014671
                          1       6    5dy2              0.090000      -0.010181
                                                         0.191936       0.018957
                                                         0.750068       0.933882
                                                         2.907977       0.008471
                          1       6    5dyz              0.090000      -0.017634
                                                         0.191936       0.032834
                                                         0.750068       1.617531
                                                         2.907977       0.014671
                          1       6    5dz2              0.090000      -0.010181
                                                         0.191936       0.018957
                                                         0.750068       0.933882
                                                         2.907977       0.008471

                          1       7    5fx3              0.090000       0.003073
                                                         0.191936       0.017866
                                                         0.750068       0.208981
                                                         2.907977      -1.809714
                          1       7    5fx2y             0.090000       0.006871
                                                         0.191936       0.039950
                                                         0.750068       0.467295
                                                         2.907977      -4.046643
                          1       7    5fx2z             0.090000       0.006871
                                                         0.191936       0.039950
                                                         0.750068       0.467295
                                                         2.907977      -4.046643
                          1       7    5fxy2             0.090000       0.006871
                                                         0.191936       0.039950
                                                         0.750068       0.467295
                                                         2.907977      -4.046643
                          1       7    5fxyz             0.090000       0.011901
                                                         0.191936       0.069196
                                                         0.750068       0.809378
                                                         2.907977      -7.008992
                          1       7    5fxz2             0.090000       0.006871
                                                         0.191936       0.039950
                                                         0.750068       0.467295
                                                         2.907977      -4.046643
                          1       7    5fy3              0.090000       0.003073
                                                         0.191936       0.017866
                                                         0.750068       0.208981
                                                         2.907977      -1.809714
                          1       7    5fy2z             0.090000       0.006871
                                                         0.191936       0.039950
                                                         0.750068       0.467295
                                                         2.907977      -4.046643
                          1       7    5fyz2             0.090000       0.006871
                                                         0.191936       0.039950
                                                         0.750068       0.467295
                                                         2.907977      -4.046643
                          1       7    5fz3              0.090000       0.003073
                                                         0.191936       0.017866
                                                         0.750068       0.208981
                                                         2.907977      -1.809714

                          2       1    1s                0.293338      -0.001581
                                                         0.941883       0.076823

                          2       2    2s                0.293338       0.124568
                                                         0.941883       0.386056

                          2       3    3s                0.293338       0.411906
                                                         0.941883      -0.735854

     AE Potential information for                                            ALL

       Description:                                       All-electron potential
                                          Krack, Parrinello, PCCP 2, 2105 (2000)

       Gaussian exponent of the core charge distribution:               8.154466
       Electronic configuration (s p d ...):                           4   4   0


 MOLECULE KIND INFORMATION


 All atoms are their own molecule, skipping detailed information


 TOTAL NUMBERS AND MAXIMUM NUMBERS

  Total number of            - Atomic kinds:                                   1
                             - Atoms:                                          2
                             - Shell sets:                                     4
                             - Shells:                                        20
                             - Primitive Cartesian functions:                 24
                             - Cartesian basis functions:                     70
                             - Spherical basis functions:                     60

  Maximum angular momentum of the orbital basis functions:                     3


 MODULE QUICKSTEP: ATOMIC COORDINATES IN ANGSTROM

   Atom Kind Element         X             Y             Z       Z(eff)     Mass
      1    1 O     8     15.603900     15.000000     15.000000   8.0000  15.9994
      2    1 O     8     14.396100     15.000000     15.000000   8.0000  15.9994



 SCF PARAMETERS         Density guess:                                    ATOMIC
                        --------------------------------------------------------
                        max_scf:                                             500
                        max_scf_history:                                       0
                        max_diis:                                              4
                        --------------------------------------------------------
                        eps_scf:                                        1.00E-06
                        eps_scf_history:                                0.00E+00
                        eps_diis:                                       1.00E-01
                        eps_eigval:                                     1.00E-05
                        --------------------------------------------------------
                        level_shift [a.u.]:                             0.000000
                        added MOs                                        52    0
                        --------------------------------------------------------
                        Mixing method:                            BROYDEN_MIXING
                                                charge density mixing in g-space
                        --------------------------------------------------------
                        No outer SCF

 PW_GRID| Information for grid number                                          1
 PW_GRID| Grid distributed over                                    24 processors
 PW_GRID| Real space group dimensions                                    24    1
 PW_GRID| the grid is blocked:                                                NO
 PW_GRID| Cutoff [a.u.]                                                    250.0
 PW_GRID| spherical cutoff:                                                   NO
 PW_GRID|   Bounds   1           -202     202                Points:         405
 PW_GRID|   Bounds   2           -202     202                Points:         405
 PW_GRID|   Bounds   3           -202     202                Points:         405
 PW_GRID| Volume element (a.u.^3)  0.2743E-02     Volume (a.u.^3)    182205.0337
 PW_GRID| Grid span                                                    FULLSPACE
 PW_GRID|   Distribution                         Average         Max         Min
 PW_GRID|   G-Vectors                          2767921.9     2768175     2767770
 PW_GRID|   G-Rays                                6834.4        6835        6834
 PW_GRID|   Real Space Points                  2767921.9     2788425     2624400

 PW_GRID| Information for grid number                                          2
 PW_GRID| Number of the reference grid                                         1
 PW_GRID| Grid distributed over                                    24 processors
 PW_GRID| Real space group dimensions                                    24    1
 PW_GRID| the grid is blocked:                                                NO
 PW_GRID| Cutoff [a.u.]                                                     83.3
 PW_GRID| spherical cutoff:                                                   NO
 PW_GRID|   Bounds   1           -120     119                Points:         240
 PW_GRID|   Bounds   2           -120     119                Points:         240
 PW_GRID|   Bounds   3           -120     119                Points:         240
 PW_GRID| Volume element (a.u.^3)  0.1318E-01     Volume (a.u.^3)    182205.0337
 PW_GRID| Grid span                                                    FULLSPACE
 PW_GRID|   Distribution                         Average         Max         Min
 PW_GRID|   G-Vectors                           576000.0      576240      575760
 PW_GRID|   G-Rays                                2400.0        2401        2399
 PW_GRID|   Real Space Points                   576000.0      576000      576000

 PW_GRID| Information for grid number                                          3
 PW_GRID| Number of the reference grid                                         1
 PW_GRID| Grid distributed over                                    24 processors
 PW_GRID| Real space group dimensions                                    24    1
 PW_GRID| the grid is blocked:                                                NO
 PW_GRID| Cutoff [a.u.]                                                     27.8
 PW_GRID| spherical cutoff:                                                   NO
 PW_GRID|   Bounds   1            -67      67                Points:         135
 PW_GRID|   Bounds   2            -67      67                Points:         135
 PW_GRID|   Bounds   3            -67      67                Points:         135
 PW_GRID| Volume element (a.u.^3)  0.7406E-01     Volume (a.u.^3)    182205.0337
 PW_GRID| Grid span                                                    FULLSPACE
 PW_GRID|   Distribution                         Average         Max         Min
 PW_GRID|   G-Vectors                           102515.6      102735      102330
 PW_GRID|   G-Rays                                 759.4         761         758
 PW_GRID|   Real Space Points                   102515.6      109350       91125

 PW_GRID| Information for grid number                                          4
 PW_GRID| Number of the reference grid                                         1
 PW_GRID| Grid distributed over                                    24 processors
 PW_GRID| Real space group dimensions                                    24    1
 PW_GRID| the grid is blocked:                                                NO
 PW_GRID| Cutoff [a.u.]                                                      9.3
 PW_GRID| spherical cutoff:                                                   NO
 PW_GRID|   Bounds   1            -40      39                Points:          80
 PW_GRID|   Bounds   2            -40      39                Points:          80
 PW_GRID|   Bounds   3            -40      39                Points:          80
 PW_GRID| Volume element (a.u.^3)  0.3559         Volume (a.u.^3)    182205.0337
 PW_GRID| Grid span                                                    FULLSPACE
 PW_GRID|   Distribution                         Average         Max         Min
 PW_GRID|   G-Vectors                            21333.3       21360       21280
 PW_GRID|   G-Rays                                 266.7         267         266
 PW_GRID|   Real Space Points                    21333.3       25600       19200

 POISSON| Solver                                                         WAVELET
 POISSON| Wavelet| Scaling function                                           40
 POISSON| Periodicity                                                       NONE

 RS_GRID| Information for grid number                                          1
 RS_GRID|   Bounds   1           -202     202                Points:         405
 RS_GRID|   Bounds   2           -202     202                Points:         405
 RS_GRID|   Bounds   3           -202     202                Points:         405
 RS_GRID| Real space distribution over                                  4 groups
 RS_GRID| Real space distribution along direction                              2
 RS_GRID| Border size                                                         34
 RS_GRID| Real space distribution over                                  6 groups
 RS_GRID| Real space distribution along direction                              3
 RS_GRID| Border size                                                         34
 RS_GRID|   Distribution                         Average         Max         Min
 RS_GRID|   Planes                                 169.2         170         169
 RS_GRID|   Distribution                         Average         Max         Min
 RS_GRID|   Planes                                 135.5         136         135

 RS_GRID| Information for grid number                                          2
 RS_GRID|   Bounds   1           -120     119                Points:         240
 RS_GRID|   Bounds   2           -120     119                Points:         240
 RS_GRID|   Bounds   3           -120     119                Points:         240
 RS_GRID| Real space distribution over                                  4 groups
 RS_GRID| Real space distribution along direction                              2
 RS_GRID| Border size                                                         32
 RS_GRID| Real space distribution over                                  6 groups
 RS_GRID| Real space distribution along direction                              3
 RS_GRID| Border size                                                         32
 RS_GRID|   Distribution                         Average         Max         Min
 RS_GRID|   Planes                                 124.0         124         124
 RS_GRID|   Distribution                         Average         Max         Min
 RS_GRID|   Planes                                 104.0         104         104

 RS_GRID| Information for grid number                                          3
 RS_GRID|   Bounds   1            -67      67                Points:         135
 RS_GRID|   Bounds   2            -67      67                Points:         135
 RS_GRID|   Bounds   3            -67      67                Points:         135
 RS_GRID| Real space fully replicated
 RS_GRID| Group size                                                           1

 RS_GRID| Information for grid number                                          4
 RS_GRID|   Bounds   1            -40      39                Points:          80
 RS_GRID|   Bounds   2            -40      39                Points:          80
 RS_GRID|   Bounds   3            -40      39                Points:          80
 RS_GRID| Real space fully replicated
 RS_GRID| Group size                                                           1

  HFX_INFO| Replica ID:                                                        1
  HFX_INFO| FRACTION:                                               0.2500000000
  HFX_INFO| Interaction Potential:                                       COULOMB
  HFX_INFO| EPS_SCHWARZ:                                                 1.0E-10
  HFX_INFO| EPS_SCHWARZ_FORCES                                           1.0E-08
  HFX_INFO| EPS_STORAGE_SCALING:                                         1.0E+00
  HFX_INFO| NBINS:                                                            64
  HFX_INFO| BLOCK_SIZE:                                                        1
  HFX_INFO| Number of periodic shells considered:                           NONE
  HFX_INFO| Number of periodic cells considered:                            NONE

 
 RI-RPA| using GPW style
 

 OVERLAP MATRIX CONDITION NUMBER
 1-Norm Condition Number (Estimate)
   CN : |A|*|A^-1|:  5.696E+000 *  6.106E+003   = 3.478E+004  Log(1-CN):  4.5413
 1-Norm and 2-Norm Condition Numbers using Diagonalization
   CN : |A|*|A^-1|:  5.696E+000 *  6.106E+003   = 3.478E+004  Log(1-CN):  4.5413
   CN : max/min ev:  4.081E+000 /  2.235E-004   = 1.825E+004  Log(2-CN):  4.2614

 Number of electrons:                                                         16
 Number of occupied orbitals:                                                  8
 Number of molecular orbitals:                                                60

 Number of orbital functions:                                                 60
 Number of independent orbital functions:                                     60

 Extrapolation method: initial_guess

 Atomic guess: The first density matrix is obtained in terms of atomic orbitals
               and electronic configurations assigned to each atomic kind

 Guess for atomic kind: O

 Electronic structure
    Total number of core electrons                                          0.00
    Total number of valence electrons                                       8.00
    Total number of electrons                                               8.00
    Multiplicity                                                   not specified
    S      2.00  2.00
    P      4.00


 *******************************************************************************
                  Iteration          Convergence                     Energy [au]
 *******************************************************************************
                          1        0.848674                     -74.203659346590
                          2        0.676538                     -74.224350300929
                          3        0.118146E-01                 -74.325384117638
                          4        0.875023E-03                 -74.325411956579
                          5        0.262407E-04                 -74.325412100097
                          6        0.953925E-07                 -74.325412100225

 Energy components [Hartree]           Total Energy ::          -74.325412100225
                                        Band Energy ::          -40.703914598313
                                     Kinetic Energy ::           74.466117831440
                                   Potential Energy ::         -148.791529931665
                                      Virial (-V/T) ::            1.998110473121
                                        Core Energy ::         -102.666843544949
                                          XC Energy ::           -7.743421966386
                                     Coulomb Energy ::           36.084853411110

 Orbital energies  State     L     Occupation   Energy[a.u.]          Energy[eV]

                       1     0          2.000     -18.799663         -511.564844
                       2     0          2.000      -0.852501          -23.197720

                       1     1          4.000      -0.349897           -9.521179


 Total Electron Density at R=0:                                       292.094851
 Re-scaling the density matrix to get the right number of electrons
                  # Electrons              Trace(P)               Scaling factor
                           16                16.000                        1.000


 SCF WAVEFUNCTION OPTIMIZATION

  Step     Update method      Time    Convergence         Total energy    Change
  ------------------------------------------------------------------------------

  HFX_MEM_INFO| Est. max. program size before HFX [MiB]:                    2149
  HFX_MEM_INFO| Number of cart. primitive ERI's calculated:            760130289
  HFX_MEM_INFO| Number of sph. ERI's calculated:                         4860000
  HFX_MEM_INFO| Number of sph. ERI's stored in-core:                     4860000
  HFX_MEM_INFO| Number of sph. ERI's stored on disk:                           0
  HFX_MEM_INFO| Number of sph. ERI's calculated on the fly:                    0
  HFX_MEM_INFO| Total memory consumption ERI's RAM [MiB]:                     21
  HFX_MEM_INFO| Whereof max-vals [MiB]:                                        1
  HFX_MEM_INFO| Total compression factor ERI's RAM:                         1.81
  HFX_MEM_INFO| Total memory consumption ERI's disk [MiB]:                     0
  HFX_MEM_INFO| Total compression factor ERI's disk:                        0.00
  HFX_MEM_INFO| Size of density/Fock matrix [MiB]:                             0
  HFX_MEM_INFO| Size of buffers [MiB]:                                        16
  HFX_MEM_INFO| Est. max. program size after HFX  [MiB]:                    2683

     1 NoMix/Diag. 0.10E+00   19.6     1.13822831      -150.1636200753 -1.50E+02
     2 Broy./Diag. 0.10E+00    4.7     0.03820596      -149.6438961235  5.20E-01
     3 Broy./Diag. 0.10E+00    4.8     0.03883362      -149.7745489968 -1.31E-01
     4 Broy./Diag. 0.10E+00    4.9     0.01448491      -150.0297254668 -2.55E-01
     5 Broy./Diag. 0.10E+00    4.9     0.00603438      -150.0287449740  9.80E-04
     6 Broy./Diag. 0.10E+00    5.0     0.02288477      -149.9136421004  1.15E-01
     7 Broy./Diag. 0.10E+00    5.1     0.00156690      -149.8480150763  6.56E-02
     8 Broy./Diag. 0.10E+00    5.1     0.00085746      -149.8558984766 -7.88E-03
     9 Broy./Diag. 0.10E+00    5.4     0.00266515      -149.8953528827 -3.95E-02
    10 Broy./Diag. 0.10E+00    5.4     0.00114503      -149.9168015427 -2.14E-02
    11 Broy./Diag. 0.10E+00    5.5     0.00181787      -149.9020053745  1.48E-02
    12 Broy./Diag. 0.10E+00    5.4     0.00063647      -149.8958556267  6.15E-03
    13 Broy./Diag. 0.10E+00    5.4     0.00079749      -149.8978885613 -2.03E-03
    14 Broy./Diag. 0.10E+00    5.5     0.00171999      -149.8974702030  4.18E-04
    15 Broy./Diag. 0.10E+00    5.3     0.00020180      -149.8973310261  1.39E-04
    16 Broy./Diag. 0.10E+00    5.3     0.00169508      -149.9000830111 -2.75E-03
    17 Broy./Diag. 0.10E+00    5.4     0.00104389      -149.9008611855 -7.78E-04
    18 Broy./Diag. 0.10E+00    5.3     0.00027529      -149.9002806926  5.80E-04
    19 Broy./Diag. 0.10E+00    5.4     0.00049936      -149.9003091466 -2.85E-05
    20 Broy./Diag. 0.10E+00    5.4     0.00027664      -149.8996325557  6.77E-04
    21 Broy./Diag. 0.10E+00    5.4     0.00019721      -149.8981354759  1.50E-03
    22 Broy./Diag. 0.10E+00    5.4     0.00003958      -149.8977382587  3.97E-04
    23 Broy./Diag. 0.10E+00    5.4     0.00005164      -149.8980592932 -3.21E-04
    24 Broy./Diag. 0.10E+00    5.4     0.00011041      -149.8980620343 -2.74E-06
    25 Broy./Diag. 0.10E+00    5.5     0.00019087      -149.8980263635  3.57E-05
    26 Broy./Diag. 0.10E+00    5.6     0.00007634      -149.8981890682 -1.63E-04
    27 Broy./Diag. 0.10E+00    5.5     0.00005526      -149.8981504259  3.86E-05
    28 Broy./Diag. 0.10E+00    5.5     0.00003718      -149.8980954015  5.50E-05
    29 Broy./Diag. 0.10E+00    5.4     0.00003235      -149.8980957482 -3.47E-07
    30 Broy./Diag. 0.10E+00    5.4     0.00005689      -149.8980816158  1.41E-05
    31 Broy./Diag. 0.10E+00    5.5     0.00004594      -149.8981600512 -7.84E-05
    32 Broy./Diag. 0.10E+00    5.3     0.00004893      -149.8982067021 -4.67E-05
    33 Broy./Diag. 0.10E+00    5.4     0.00006765      -149.8981957876  1.09E-05
    34 Broy./Diag. 0.10E+00    5.4     0.00011046      -149.8982022327 -6.45E-06
    35 Broy./Diag. 0.10E+00    5.3     0.00014131      -149.8982070641 -4.83E-06
    36 Broy./Diag. 0.10E+00    5.4     0.00021416      -149.8982096861 -2.62E-06
    37 Broy./Diag. 0.10E+00    5.4     0.00033667      -149.8982110378 -1.35E-06
    38 Broy./Diag. 0.10E+00    5.4     0.00052055      -149.8982090196  2.02E-06
    39 Broy./Diag. 0.10E+00    5.6     0.00081364      -149.8982053461  3.67E-06
    40 Broy./Diag. 0.10E+00    5.4     0.00126864      -149.8982063022 -9.56E-07
    41 Broy./Diag. 0.10E+00    5.5     0.00197850      -149.8982108254 -4.52E-06
    42 Broy./Diag. 0.10E+00    5.4     0.00308460      -149.8981989966  1.18E-05
    43 Broy./Diag. 0.10E+00    5.5     0.00480684      -149.8981761208  2.29E-05
    44 Broy./Diag. 0.10E+00    5.5     0.00745275      -149.8981756186  5.02E-07
    45 Broy./Diag. 0.10E+00    5.5     0.01153755      -149.8981747653  8.53E-07
    46 Broy./Diag. 0.10E+00    5.4     0.01787229      -149.8981703079  4.46E-06
    47 Broy./Diag. 0.10E+00    5.6     0.02740548      -149.8980953830  7.49E-05
    48 Broy./Diag. 0.10E+00    5.4     0.04141304      -149.8978793838  2.16E-04
    49 Broy./Diag. 0.10E+00    5.4     0.06049516      -149.8974173254  4.62E-04
    50 Broy./Diag. 0.10E+00    5.4     0.08174148      -149.8963487844  1.07E-03
    51 Broy./Diag. 0.10E+00    5.3     0.09470654      -149.8939047652  2.44E-03
    52 Broy./Diag. 0.10E+00    5.4     0.14655329      -149.8889224670  4.98E-03
    53 Broy./Diag. 0.10E+00    5.4     0.17715586      -149.8803512595  8.57E-03
    54 Broy./Diag. 0.10E+00    5.4     0.16591431      -149.8686681215  1.17E-02
    55 Broy./Diag. 0.10E+00    5.4     0.12595014      -149.8564922804  1.22E-02
    56 Broy./Diag. 0.10E+00    5.5     0.08551646      -149.8465239655  9.97E-03
    57 Broy./Diag. 0.10E+00    5.5     0.07837924      -149.8395156144  7.01E-03
    58 Broy./Diag. 0.10E+00    5.6     0.06476904      -149.8351477451  4.37E-03
    59 Broy./Diag. 0.10E+00    5.4     0.05082067      -149.8326422551  2.51E-03
    60 Broy./Diag. 0.10E+00    5.4     0.03906756      -149.8312571475  1.39E-03
    61 Broy./Diag. 0.10E+00    5.5     0.03058666      -149.8309574523  3.00E-04
    62 Broy./Diag. 0.10E+00    5.3     0.02507944      -149.8376421119 -6.68E-03
    63 Broy./Diag. 0.10E+00    5.3     0.01746463      -149.8321587773  5.48E-03
    64 Broy./Diag. 0.10E+00    5.4     0.02082692      -149.8210891671  1.11E-02
    65 Broy./Diag. 0.10E+00    5.4     0.02633780      -149.8995150516 -7.84E-02
    66 Broy./Diag. 0.10E+00    5.4     0.03914028      -150.0039452380 -1.04E-01
    67 Broy./Diag. 0.10E+00    5.5     0.11097670      -150.0602546422 -5.63E-02
    68 Broy./Diag. 0.10E+00    5.5     0.18567017      -149.9924191829  6.78E-02
    69 Broy./Diag. 0.10E+00    5.5     0.14024727      -149.9625078668  2.99E-02
    70 Broy./Diag. 0.10E+00    5.5     0.03410895      -149.9122752206  5.02E-02
    71 Broy./Diag. 0.10E+00    5.4     0.01452480      -149.9569382081 -4.47E-02
    72 Broy./Diag. 0.10E+00    5.4     0.12922064      -150.0582854672 -1.01E-01
    73 Broy./Diag. 0.10E+00    5.4     0.12804794      -150.0841204095 -2.58E-02
    74 Broy./Diag. 0.10E+00    5.4     0.04564998      -149.9978658417  8.63E-02
    75 Broy./Diag. 0.10E+00    5.4     0.01961514      -149.9375128879  6.04E-02
    76 Broy./Diag. 0.10E+00    5.3     0.02893940      -149.8978410297  3.97E-02
    77 Broy./Diag. 0.10E+00    5.4     0.02940662      -149.8390876805  5.88E-02
    78 Broy./Diag. 0.10E+00    5.3     0.15459122      -149.8022182697  3.69E-02
    79 Broy./Diag. 0.10E+00    5.3     0.17183462      -149.7777861383  2.44E-02
    80 Broy./Diag. 0.10E+00    5.3     0.19981500      -149.7559018445  2.19E-02
    81 Broy./Diag. 0.10E+00    5.4     0.14850640      -149.8116711260 -5.58E-02
    82 Broy./Diag. 0.10E+00    5.4     0.02155954      -149.8157684860 -4.10E-03
    83 Broy./Diag. 0.10E+00    5.4     0.06755543      -149.7603254551  5.54E-02
    84 Broy./Diag. 0.10E+00    5.5     0.06175987      -149.7518898130  8.44E-03
    85 Broy./Diag. 0.10E+00    5.5     0.03651510      -149.8013638749 -4.95E-02
    86 Broy./Diag. 0.10E+00    5.5     0.05323271      -149.8674854293 -6.61E-02
    87 Broy./Diag. 0.10E+00    5.4     0.02745913      -149.9376430671 -7.02E-02
    88 Broy./Diag. 0.10E+00    5.4     0.02478283      -149.9804433881 -4.28E-02
    89 Broy./Diag. 0.10E+00    5.4     0.03317504      -149.9821044735 -1.66E-03
    90 Broy./Diag. 0.10E+00    5.4     0.02738767      -149.9643436951  1.78E-02
    91 Broy./Diag. 0.10E+00    5.3     0.01867294      -149.9404880510  2.39E-02
    92 Broy./Diag. 0.10E+00    5.4     0.01920721      -149.9234910325  1.70E-02
    93 Broy./Diag. 0.10E+00    5.4     0.00718142      -149.9163493733  7.14E-03
    94 Broy./Diag. 0.10E+00    5.3     0.01034758      -149.9121138301  4.24E-03
    95 Broy./Diag. 0.10E+00    5.3     0.00712307      -149.9119344303  1.79E-04
    96 Broy./Diag. 0.10E+00    5.4     0.00524707      -149.9094839617  2.45E-03
    97 Broy./Diag. 0.10E+00    5.5     0.01304068      -149.9007756172  8.71E-03
    98 Broy./Diag. 0.10E+00    5.5     0.01551211      -149.8963021136  4.47E-03
    99 Broy./Diag. 0.10E+00    5.4     0.02955997      -149.8926245416  3.68E-03
   100 Broy./Diag. 0.10E+00    5.4     0.04272525      -149.8912577815  1.37E-03
   101 Broy./Diag. 0.10E+00    5.4     0.05567287      -149.8904353492  8.22E-04
   102 Broy./Diag. 0.10E+00    5.5     0.07446992      -149.8886769223  1.76E-03
[...]
 *** edges of the unit cell: wrong results in WAVELET solver           ***

   449 Broy./Diag. 0.10E+00    5.5     0.02132940      -150.2940632941  3.87E-02

 *** WARNING in pw/ps_wavelet_methods.F:238 :: Density non-zero on the ***
 *** edges of the unit cell: wrong results in WAVELET solver           ***

   450 Broy./Diag. 0.10E+00    5.4     0.00755832      -150.2097532868  8.43E-02

 *** WARNING in pw/ps_wavelet_methods.F:238 :: Density non-zero on the ***
 *** edges of the unit cell: wrong results in WAVELET solver           ***

   451 Broy./Diag. 0.10E+00    5.5     0.02089919      -150.1159490088  9.38E-02

 *** WARNING in pw/ps_wavelet_methods.F:238 :: Density non-zero on the ***
 *** edges of the unit cell: wrong results in WAVELET solver           ***

   452 Broy./Diag. 0.10E+00    5.4     0.01034640      -150.2116812188 -9.57E-02

 *** WARNING in pw/ps_wavelet_methods.F:238 :: Density non-zero on the ***
 *** edges of the unit cell: wrong results in WAVELET solver           ***

   453 Broy./Diag. 0.10E+00    5.4     0.06865418      -150.1913371274  2.03E-02

 *** WARNING in pw/ps_wavelet_methods.F:238 :: Density non-zero on the ***
 *** edges of the unit cell: wrong results in WAVELET solver           ***

   454 Broy./Diag. 0.10E+00    5.4     0.01844205      -150.1361037333  5.52E-02

 *** WARNING in pw/ps_wavelet_methods.F:238 :: Density non-zero on the ***
 *** edges of the unit cell: wrong results in WAVELET solver           ***

   455 Broy./Diag. 0.10E+00    5.4     0.14348101      -150.1724362677 -3.63E-02

 *** WARNING in pw/ps_wavelet_methods.F:238 :: Density non-zero on the ***
 *** edges of the unit cell: wrong results in WAVELET solver           ***

   456 Broy./Diag. 0.10E+00    5.4     0.20357356      -150.1945643485 -2.21E-02

 *** WARNING in pw/ps_wavelet_methods.F:238 :: Density non-zero on the ***
 *** edges of the unit cell: wrong results in WAVELET solver           ***

   457 Broy./Diag. 0.10E+00    5.5     0.09213595      -150.4821430993 -2.88E-01

 *** WARNING in pw/ps_wavelet_methods.F:238 :: Density non-zero on the ***
 *** edges of the unit cell: wrong results in WAVELET solver           ***

   458 Broy./Diag. 0.10E+00    5.6     0.12447017      -150.5987554756 -1.17E-01

 *** WARNING in pw/ps_wavelet_methods.F:238 :: Density non-zero on the ***
 *** edges of the unit cell: wrong results in WAVELET solver           ***

   459 Broy./Diag. 0.10E+00    5.4     0.19182619      -150.2155659991  3.83E-01

 *** WARNING in pw/ps_wavelet_methods.F:238 :: Density non-zero on the ***
 *** edges of the unit cell: wrong results in WAVELET solver           ***

   460 Broy./Diag. 0.10E+00    5.5     0.15007812      -150.0219075192  1.94E-01

 *** WARNING in pw/ps_wavelet_methods.F:238 :: Density non-zero on the ***
 *** edges of the unit cell: wrong results in WAVELET solver           ***

   461 Broy./Diag. 0.10E+00    5.4     0.01557686      -149.9794489034  4.25E-02

 *** WARNING in pw/ps_wavelet_methods.F:238 :: Density non-zero on the ***
 *** edges of the unit cell: wrong results in WAVELET solver           ***

   462 Broy./Diag. 0.10E+00    5.4     0.05126565      -149.9766947761  2.75E-03

 *** WARNING in pw/ps_wavelet_methods.F:238 :: Density non-zero on the ***
 *** edges of the unit cell: wrong results in WAVELET solver           ***

   463 Broy./Diag. 0.10E+00    5.4     0.03214123      -149.9503850513  2.63E-02

 *** WARNING in pw/ps_wavelet_methods.F:238 :: Density non-zero on the ***
 *** edges of the unit cell: wrong results in WAVELET solver           ***

   464 Broy./Diag. 0.10E+00    5.4     0.09661664      -149.9298126726  2.06E-02

 *** WARNING in pw/ps_wavelet_methods.F:238 :: Density non-zero on the ***
 *** edges of the unit cell: wrong results in WAVELET solver           ***

   465 Broy./Diag. 0.10E+00    5.4     0.07403409      -149.9398879740 -1.01E-02
   466 Broy./Diag. 0.10E+00    5.4     0.08189929      -149.9624854520 -2.26E-02
   467 Broy./Diag. 0.10E+00    5.4     0.09665802      -149.9857095035 -2.32E-02
   468 Broy./Diag. 0.10E+00    5.4     0.01736232      -149.9690763591  1.66E-02
   469 Broy./Diag. 0.10E+00    5.4     0.01936803      -149.9579780491  1.11E-02
   470 Broy./Diag. 0.10E+00    5.3     0.01534940      -149.9713219341 -1.33E-02
   471 Broy./Diag. 0.10E+00    5.3     0.03098630      -149.9970306156 -2.57E-02
   472 Broy./Diag. 0.10E+00    5.3     0.04075615      -150.0015036468 -4.47E-03
   473 Broy./Diag. 0.10E+00    5.4     0.01375669      -149.9930916092  8.41E-03
   474 Broy./Diag. 0.10E+00    5.5     0.03459932      -149.9801899745  1.29E-02
   475 Broy./Diag. 0.10E+00    5.5     0.04061034      -149.9808112273 -6.21E-04
   476 Broy./Diag. 0.10E+00    5.5     0.00863197      -149.9853716599 -4.56E-03
   477 Broy./Diag. 0.10E+00    5.4     0.01567209      -149.9871007977 -1.73E-03
   478 Broy./Diag. 0.10E+00    5.4     0.01543734      -149.9635576666  2.35E-02
   479 Broy./Diag. 0.10E+00    5.4     0.02318124      -149.9385877530  2.50E-02
   480 Broy./Diag. 0.10E+00    5.4     0.01092122      -149.9192290139  1.94E-02
   481 Broy./Diag. 0.10E+00    5.4     0.02331041      -149.9108036975  8.43E-03
   482 Broy./Diag. 0.10E+00    5.4     0.01629410      -149.9053674522  5.44E-03
   483 Broy./Diag. 0.10E+00    5.4     0.00224468      -149.9002863157  5.08E-03
   484 Broy./Diag. 0.10E+00    5.4     0.00479318      -149.8988924786  1.39E-03
   485 Broy./Diag. 0.10E+00    5.4     0.01889221      -149.9040722312 -5.18E-03
   486 Broy./Diag. 0.10E+00    5.4     0.01820217      -149.9100762345 -6.00E-03
   487 Broy./Diag. 0.10E+00    5.5     0.00401952      -149.9113943629 -1.32E-03
   488 Broy./Diag. 0.10E+00    5.5     0.00547381      -149.9117544227 -3.60E-04
   489 Broy./Diag. 0.10E+00    5.5     0.00460684      -149.9110143766  7.40E-04
   490 Broy./Diag. 0.10E+00    5.5     0.00928003      -149.9075345099  3.48E-03
   491 Broy./Diag. 0.10E+00    5.5     0.00158999      -149.9064110217  1.12E-03
   492 Broy./Diag. 0.10E+00    5.4     0.00396249      -149.9059672751  4.44E-04
   493 Broy./Diag. 0.10E+00    5.4     0.00294436      -149.9050172280  9.50E-04
   494 Broy./Diag. 0.10E+00    5.3     0.00144792      -149.9022332210  2.78E-03
   495 Broy./Diag. 0.10E+00    5.4     0.00373944      -149.8995297347  2.70E-03
   496 Broy./Diag. 0.10E+00    5.4     0.00461676      -149.8985745424  9.55E-04
   497 Broy./Diag. 0.10E+00    5.5     0.00159247      -149.8982189530  3.56E-04
   498 Broy./Diag. 0.10E+00    5.4     0.00111691      -149.8981608003  5.82E-05
   499 Broy./Diag. 0.10E+00    5.4     0.00051954      -149.8982305699 -6.98E-05
   500 Broy./Diag. 0.10E+00    5.4     0.00130213      -149.8982435781 -1.30E-05

  Leaving inner SCF loop after reaching   500 steps.


  Electronic density on regular grids:        -12.1414120492        3.8585879508
  Core density on regular grids:               16.0000000000        0.0000000000
  Hard and soft densities (Lebedev):         -100.9994586218      -97.1409410054
  Total Rho_soft + Rho1_hard - Rho1_soft      -15.9999296655
  Total charge density (r-space):               0.0000703345
  Total Rho_soft + Rho0_soft (g-space):         0.0000700279

  Overlap energy of the core charge distribution:               0.00000000200246
  Self energy of the core charge distribution:               -145.82024045573709
  Core Hamiltonian energy:                                    -13.28164471146701
  Hartree energy:                                              26.53837459266928
  Exchange-correlation energy:                                 -5.28257974137664
  Hartree-Fock Exchange energy:                                -4.04125163049051

  GAPW| Exc from hard and soft atomic rho1:                    -7.44242800333491
  GAPW| local Eh = 1 center integrals:                         -0.56847363037440

  Total energy:                                              -149.89824357810886

 *******************************************************************************
 *   ___                                                                       *
 *  /   \                                                                      *
 * [ABORT]                                                                     *
 *  \___/     SCF run NOT converged. To continue the calculation regardless,   *
 *    |             please set the keyword IGNORE_CONVERGENCE_FAILURE.         *
 *  O/|                                                                        *
 * /| |                                                                        *
 * / \                                                            qs_scf.F:611 *
 *******************************************************************************


 ===== Routine Calling Stack ===== 

            3 scf_env_do_scf
            2 qs_energies
            1 CP2K

 *******************************************************************************
 *   ___                                                                       *
 *  /   \                                                                      *
 * [ABORT]                                                                     *
 *  \___/     SCF run NOT converged. To continue the calculation regardless,   *
 *    |             please set the keyword IGNORE_CONVERGENCE_FAILURE.         *
 *  O/|                                                                        *
 * /| |                                                                        *
 * / \                                                            qs_scf.F:611 *
 *******************************************************************************


 ===== Routine Calling Stack ===== 

            3 scf_env_do_scf
            2 qs_energies
            1 CP2K

 *******************************************************************************
 *   ___                                                                       *
 *  /   \                                                                      *
 * [ABORT]                                                                     *
 *  \___/     SCF run NOT converged. To continue the calculation regardless,   *
 *    |             please set the keyword IGNORE_CONVERGENCE_FAILURE.         *
 *  O/|                                                                        *
 * /| |                                                                        *
 * / \                                                            qs_scf.F:611 *
 *******************************************************************************


 ===== Routine Calling Stack ===== 

            3 scf_env_do_scf
            2 qs_energies
            1 CP2K

 *******************************************************************************
 *   ___                                                                       *
 *  /   \                                                                      *
 * [ABORT]                                                                     *
 *  \___/     SCF run NOT converged. To continue the calculation regardless,   *
 *    |             please set the keyword IGNORE_CONVERGENCE_FAILURE.         *
 *  O/|                                                                        *
 * /| |                                                                        *
 * / \                                                            qs_scf.F:611 *
 *******************************************************************************


 ===== Routine Calling Stack ===== 

            3 scf_env_do_scf
            2 qs_energies
            1 CP2K

 *******************************************************************************
 *   ___                                                                       *
 *  /   \                                                                      *
 * [ABORT]                                                                     *
 *  \___/     SCF run NOT converged. To continue the calculation regardless,   *
 *    |             please set the keyword IGNORE_CONVERGENCE_FAILURE.         *
 *  O/|                                                                        *
 * /| |                                                                        *
 * / \                                                            qs_scf.F:611 *
 *******************************************************************************


 ===== Routine Calling Stack ===== 

            3 scf_env_do_scf
            2 qs_energies
            1 CP2K

 *******************************************************************************
 *   ___                                                                       *
 *  /   \                                                                      *
 * [ABORT]                                                                     *
 *  \___/     SCF run NOT converged. To continue the calculation regardless,   *
 *    |             please set the keyword IGNORE_CONVERGENCE_FAILURE.         *
 *  O/|                                                                        *
 * /| |                                                                        *
 * / \                                                            qs_scf.F:611 *
 *******************************************************************************


 ===== Routine Calling Stack ===== 

            3 scf_env_do_scf
            2 qs_energies
            1 CP2K

 *******************************************************************************
 *   ___                                                                       *
 *  /   \                                                                      *
 * [ABORT]                                                                     *
 *  \___/     SCF run NOT converged. To continue the calculation regardless,   *
 *    |             please set the keyword IGNORE_CONVERGENCE_FAILURE.         *
 *  O/|                                                                        *
 * /| |                                                                        *
 * / \                                                            qs_scf.F:611 *
 *******************************************************************************


 ===== Routine Calling Stack ===== 

            3 scf_env_do_scf
            2 qs_energies
            1 CP2K

 *******************************************************************************
 *   ___                                                                       *
 *  /   \                                                                      *
 * [ABORT]                                                                     *
 *  \___/     SCF run NOT converged. To continue the calculation regardless,   *
 *    |             please set the keyword IGNORE_CONVERGENCE_FAILURE.         *
 *  O/|                                                                        *
 * /| |                                                                        *
 * / \                                                            qs_scf.F:611 *
 *******************************************************************************


 ===== Routine Calling Stack ===== 

            3 scf_env_do_scf
            2 qs_energies
            1 CP2K

 *******************************************************************************
 *   ___                                                                       *
 *  /   \                                                                      *
 * [ABORT]                                                                     *
 *  \___/     SCF run NOT converged. To continue the calculation regardless,   *
 *    |             please set the keyword IGNORE_CONVERGENCE_FAILURE.         *
 *  O/|                                                                        *
 * /| |                                                                        *
 * / \                                                            qs_scf.F:611 *
 *******************************************************************************


 ===== Routine Calling Stack ===== 

            3 scf_env_do_scf
            2 qs_energies
            1 CP2K

 *******************************************************************************
 *   ___                                                                       *
 *  /   \                                                                      *
 * [ABORT]                                                                     *
 *  \___/     SCF run NOT converged. To continue the calculation regardless,   *
 *    |             please set the keyword IGNORE_CONVERGENCE_FAILURE.         *
 *  O/|                                                                        *
 * /| |                                                                        *
 * / \                                                            qs_scf.F:611 *
 *******************************************************************************


 ===== Routine Calling Stack ===== 

            3 scf_env_do_scf
            2 qs_energies
            1 CP2K

 *******************************************************************************
 *   ___                                                                       *
 *  /   \                                                                      *
 * [ABORT]                                                                     *
 *  \___/     SCF run NOT converged. To continue the calculation regardless,   *
 *    |             please set the keyword IGNORE_CONVERGENCE_FAILURE.         *
 *  O/|                                                                        *
 * /| |                                                                        *
 * / \                                                            qs_scf.F:611 *
 *******************************************************************************


 ===== Routine Calling Stack ===== 

            3 scf_env_do_scf
            2 qs_energies
            1 CP2K

 *******************************************************************************
 *   ___                                                                       *
 *  /   \                                                                      *
 * [ABORT]                                                                     *
 *  \___/     SCF run NOT converged. To continue the calculation regardless,   *
 *    |             please set the keyword IGNORE_CONVERGENCE_FAILURE.         *
 *  O/|                                                                        *
 * /| |                                                                        *
 * / \                                                            qs_scf.F:611 *
 *******************************************************************************


 ===== Routine Calling Stack ===== 

            3 scf_env_do_scf
            2 qs_energies
            1 CP2K

 *******************************************************************************
 *   ___                                                                       *
 *  /   \                                                                      *
 * [ABORT]                                                                     *
 *  \___/     SCF run NOT converged. To continue the calculation regardless,   *
 *    |             please set the keyword IGNORE_CONVERGENCE_FAILURE.         *
 *  O/|                                                                        *
 * /| |                                                                        *
 * / \                                                            qs_scf.F:611 *
 *******************************************************************************


 ===== Routine Calling Stack ===== 

            3 scf_env_do_scf
            2 qs_energies
            1 CP2K
