 DBCSR| CPU Multiplication driver                                           BLAS (U)
 DBCSR| Multrec recursion limit                                              512 (U)
 DBCSR| Multiplication stack size                                           1000 (D)
 DBCSR| Maximum elements for images                                    UNLIMITED (U)
 DBCSR| Multiplicative factor virtual images                                   1 (U)
 DBCSR| Use multiplication densification                                       T (D)
 DBCSR| Multiplication size stacks                                             3 (U)
 DBCSR| Use memory pool for CPU allocation                                     F (U)
 DBCSR| Number of 3D layers                                               SINGLE (U)
 DBCSR| Use MPI memory allocation                                              F (U)
 DBCSR| Use RMA algorithm                                                      F (U)
 DBCSR| Use Communication thread                                               T (U)
 DBCSR| Communication thread load                                             75 (D)
 DBCSR| MPI: My process id                                                     0
 DBCSR| MPI: Number of processes                                              48
 DBCSR| OMP: Current number of threads                                         4
 DBCSR| OMP: Max number of threads                                             4
 DBCSR| Split modifier for TAS multiplication algorithm                  1.0E+00 (U)


  **** **** ******  **  PROGRAM STARTED AT               2025-03-19 01:14:26.502
 ***** ** ***  *** **   PROGRAM STARTED ON                          i04r10c02s12
 **    ****   ******    PROGRAM STARTED BY                               di38fab
 ***** **    ** ** **   PROGRAM PROCESS ID                                122570
  **** **  *******  **  PROGRAM STARTED IN /hppfs/scratch/04/di38fab/05_MOL/W4-1
                                           1+ALK/o2/aug-cc-pVTZ/GW+BSE

 CP2K| version string:                 CP2K version 2025.1 (Development Version)
 CP2K| source code revision number:                                  git:d2e611a
 CP2K| cp2kflags: omp libint fftw3 libxc parallel scalapack max_contr=4         
 CP2K| is freely available from                            https://www.cp2k.org/
 CP2K| Program compiled at                       Thu 06 Mar 2025 05:09:20 PM CET
 CP2K| Program compiled on                                               login02
 CP2K| Program compiled for                                        Supermuc-foss
 CP2K| Data directory path                  /hppfs/work/pn36zo/di38fab/cp2k/data
 CP2K| Input file name                                                    GW.inp

 GLOBAL| Force Environment number                                              1
 GLOBAL| Basis set file name            /hppfs/scratch/04/di38fab/04_TMD/BASIS_A
 GLOBAL| Potential file name            /hppfs/work/pn36zo/di38fab/cp2k/data/ALL
 GLOBAL| MM Potential file name                                     MM_POTENTIAL
 GLOBAL| Coordinate file name                                      __STD_INPUT__
 GLOBAL| Method name                                                        CP2K
 GLOBAL| Project name                                                       MoS2
 GLOBAL| Run type                                                         ENERGY
 GLOBAL| FFT library                                                       FFTW3
 GLOBAL| Diagonalization library                                       ScaLAPACK
 GLOBAL| DGEMM library                                                      BLAS
 GLOBAL| Orthonormality check for eigenvectors                          DISABLED
 GLOBAL| Matrix multiplication library                                 ScaLAPACK
 GLOBAL| All-to-all communication in single precision                          F
 GLOBAL| FFTs using library dependent lengths                                  F
 GLOBAL| Grid backend                                                       AUTO
 GLOBAL| Global print level                                               MEDIUM
 GLOBAL| MPI I/O enabled                                                       T
 GLOBAL| Total number of message passing processes                            48
 GLOBAL| Number of threads for this process                                    4
 GLOBAL| This output is from process                                           0
 GLOBAL| OpenMP stack size per thread (OMP_STACKSIZE)                    default
 GLOBAL| CPU model name             Intel(R) Xeon(R) Platinum 8174 CPU @ 3.10GHz

 MEMORY| system memory details [Kb]
 MEMORY|                        rank 0           min           max       average
 MEMORY| MemTotal             98436660      98436660      98436868      98436732
 MEMORY| MemFree              83788076      83788076      84492404      83988981
 MEMORY| Buffers                     0             0             0             0
 MEMORY| Cached                2407804       2387332       2425324       2402515
 MEMORY| Slab                  1252320       1177408       1253120       1233514
 MEMORY| SReclaimable           275616        268672        281660        276579
 MEMORY| MemLikelyFree        86471496      86471496      87148408      86668075


 *** Fundamental physical constants (SI units) ***

 *** Literature: B. J. Mohr and B. N. Taylor,
 ***             CODATA recommended values of the fundamental physical
 ***             constants: 2006, Web Version 5.1
 ***             http://physics.nist.gov/constants

 Speed of light in vacuum [m/s]                             2.99792458000000E+08
 Magnetic constant or permeability of vacuum [N/A**2]       1.25663706143592E-06
 Electric constant or permittivity of vacuum [F/m]          8.85418781762039E-12
 Planck constant (h) [J*s]                                  6.62606896000000E-34
 Planck constant (h-bar) [J*s]                              1.05457162825177E-34
 Elementary charge [C]                                      1.60217648700000E-19
 Electron mass [kg]                                         9.10938215000000E-31
 Electron g factor [ ]                                     -2.00231930436220E+00
 Proton mass [kg]                                           1.67262163700000E-27
 Fine-structure constant                                    7.29735253760000E-03
 Rydberg constant [1/m]                                     1.09737315685270E+07
 Avogadro constant [1/mol]                                  6.02214179000000E+23
 Boltzmann constant [J/K]                                   1.38065040000000E-23
 Atomic mass unit [kg]                                      1.66053878200000E-27
 Bohr radius [m]                                            5.29177208590000E-11

 *** Conversion factors ***

 [u] -> [a.u.]                                              1.82288848426455E+03
 [Angstrom] -> [Bohr] = [a.u.]                              1.88972613288564E+00
 [a.u.] = [Bohr] -> [Angstrom]                              5.29177208590000E-01
 [a.u.] -> [s]                                              2.41888432650478E-17
 [a.u.] -> [fs]                                             2.41888432650478E-02
 [a.u.] -> [J]                                              4.35974393937059E-18
 [a.u.] -> [N]                                              8.23872205491840E-08
 [a.u.] -> [K]                                              3.15774647902944E+05
 [a.u.] -> [kJ/mol]                                         2.62549961709828E+03
 [a.u.] -> [kcal/mol]                                       6.27509468713739E+02
 [a.u.] -> [Pa]                                             2.94210107994716E+13
 [a.u.] -> [bar]                                            2.94210107994716E+08
 [a.u.] -> [atm]                                            2.90362800883016E+08
 [a.u.] -> [eV]                                             2.72113838565563E+01
 [a.u.] -> [Hz]                                             6.57968392072181E+15
 [a.u.] -> [1/cm] (wave numbers)                            2.19474631370540E+05
 [a.u./Bohr**2] -> [1/cm]                                   5.14048714338585E+03
 

 CELL_TOP| Volume [angstrom^3]:                                     27000.000000
 CELL_TOP| Vector a [angstrom    30.000     0.000     0.000   |a| =    30.000000
 CELL_TOP| Vector b [angstrom     0.000    30.000     0.000   |b| =    30.000000
 CELL_TOP| Vector c [angstrom     0.000     0.000    30.000   |c| =    30.000000
 CELL_TOP| Angle (b,c), alpha [degree]:                                90.000000
 CELL_TOP| Angle (a,c), beta  [degree]:                                90.000000
 CELL_TOP| Angle (a,b), gamma [degree]:                                90.000000
 CELL_TOP| Numerically orthorhombic:                                         YES
 CELL_TOP| Periodicity                                                      NONE

 GENERATE|  Preliminary Number of Bonds generated:                             0
 GENERATE|  Achieved consistency in connectivity generation.

 CELL| Volume [angstrom^3]:                                         27000.000000
 CELL| Vector a [angstrom]:      30.000     0.000     0.000   |a| =    30.000000
 CELL| Vector b [angstrom]:       0.000    30.000     0.000   |b| =    30.000000
 CELL| Vector c [angstrom]:       0.000     0.000    30.000   |c| =    30.000000
 CELL| Angle (b,c), alpha [degree]:                                    90.000000
 CELL| Angle (a,c), beta  [degree]:                                    90.000000
 CELL| Angle (a,b), gamma [degree]:                                    90.000000
 CELL| Numerically orthorhombic:                                             YES
 CELL| Periodicity                                                          NONE

 CELL_REF| Volume [angstrom^3]:                                     27000.000000
 CELL_REF| Vector a [angstrom    30.000     0.000     0.000   |a| =    30.000000
 CELL_REF| Vector b [angstrom     0.000    30.000     0.000   |b| =    30.000000
 CELL_REF| Vector c [angstrom     0.000     0.000    30.000   |c| =    30.000000
 CELL_REF| Angle (b,c), alpha [degree]:                                90.000000
 CELL_REF| Angle (a,c), beta  [degree]:                                90.000000
 CELL_REF| Angle (a,b), gamma [degree]:                                90.000000
 CELL_REF| Numerically orthorhombic:                                         YES
 CELL_REF| Periodicity                                                      NONE

 *******************************************************************************
 *******************************************************************************
 **                                                                           **
 **     #####                         ##              ##                      **
 **    ##   ##            ##          ##              ##                      **
 **   ##     ##                       ##            ######                    **
 **   ##     ##  ##   ##  ##   #####  ##  ##   ####   ##    #####    #####    **
 **   ##     ##  ##   ##  ##  ##      ## ##   ##      ##   ##   ##  ##   ##   **
 **   ##  ## ##  ##   ##  ##  ##      ####     ###    ##   ######   ######    **
 **    ##  ###   ##   ##  ##  ##      ## ##      ##   ##   ##       ##        **
 **     #######   #####   ##   #####  ##  ##  ####    ##    #####   ##        **
 **           ##                                                    ##        **
 **                                                                           **
 **                                                ... make the atoms dance   **
 **                                                                           **
 **            Copyright (C) by CP2K developers group (2000-2025)             **
 **                      J. Chem. Phys. 152, 194103 (2020)                    **
 **                                                                           **
 *******************************************************************************

 DFT| Spin restricted Kohn-Sham (RKS) calculation                            RKS
 DFT| Multiplicity                                                             1
 DFT| Number of spin states                                                    1
 DFT| Charge                                                                   0
 DFT| Self-interaction correction (SIC)                                       NO
 DFT| Cutoffs: density                                              1.000000E-10
 DFT|          gradient                                             1.000000E-10
 DFT|          tau                                                  1.000000E-10
 DFT|          cutoff_smoothing_range                               0.000000E+00
 DFT| XC density smoothing                                                  NONE
 DFT| XC derivatives                                                          PW

 FUNCTIONAL| PBE:
 FUNCTIONAL| J.P.Perdew, K.Burke, M.Ernzerhof, Phys. Rev. Letter, vol. 77, n 18,
 FUNCTIONAL|  pp. 3865-3868, (1996)sx=0.750sc=1.000{spin unpolarized}           


 QS| Method:                                                                GAPW
 QS| Density plane wave grid type                        NON-SPHERICAL FULLSPACE
 QS| Number of grid levels:                                                    4
 QS| Density cutoff [a.u.]:                                                250.0
 QS| Multi grid cutoff [a.u.]: 1) grid level                               250.0
 QS|                           2) grid level                                83.3
 QS|                           3) grid level                                27.8
 QS|                           4) grid level                                 9.3
 QS| Grid level progression factor:                                          3.0
 QS| Relative density cutoff [a.u.]:                                        50.0
 QS| Interaction thresholds: eps_pgf_orb:                                1.0E-12
 QS|                         eps_filter_matrix:                          0.0E+00
 QS|                         eps_core_charge:                            1.0E-14
 QS|                         eps_rho_gspace:                             1.0E-12
 QS|                         eps_rho_rspace:                             1.0E-12
 QS|                         eps_gvg_rspace:                             1.0E-06
 QS|                         eps_ppl:                                    1.0E-02
 QS|                         eps_ppnl:                                   1.0E-08
 QS| GAPW|      One center basis from orbital basis primitives
 QS| GAPW|                   eps_fit:                                    1.0E-04
 QS| GAPW|                   eps_iso:                                    1.0E-12
 QS| GAPW|                   eps_svd:                                    1.0E-08
 QS| GAPW|                   eps_cpc:                                    1.0E-12
 QS| GAPW|   atom-r-grid: quadrature:                                     GC_LOG
 QS| GAPW|      atom-s-grid:  max l :                                          6
 QS| GAPW|      max_l_rho0 :                                                   2


 ATOMIC KIND INFORMATION

  1. Atomic kind: O                                     Number of atoms:       2

     Orbital Basis Set                                               aug-cc-pVTZ

       Number of orbital shell sets:                                           8
       Number of orbital shells:                                              14
       Number of primitive Cartesian functions:                               22
       Number of Cartesian basis functions:                                   55
       Number of spherical basis functions:                                   46
       Norm type:                                                              2

       Normalised Cartesian orbitals:

                        Set   Shell   Orbital            Exponent    Coefficient

                          1       1    1px               0.059740       0.042099
                          1       1    1py               0.059740       0.042099
                          1       1    1pz               0.059740       0.042099

                          2       1    1s                0.073760       0.100873

                          3       1    1px              34.460000       0.000000
                                                         7.749000       0.000000
                                                         2.280000       0.000000
                                                         0.715600       0.938162
                                                         0.214000       0.000000
                          3       1    1py              34.460000       0.000000
                                                         7.749000       0.000000
                                                         2.280000       0.000000
                                                         0.715600       0.938162
                                                         0.214000       0.000000
                          3       1    1pz              34.460000       0.000000
                                                         7.749000       0.000000
                                                         2.280000       0.000000
                                                         0.715600       0.938162
                                                         0.214000       0.000000

                          3       2    2px              34.460000       1.895593
                                                         7.749000       1.838088
                                                         2.280000       1.239963
                                                         0.715600       0.460662
                                                         0.214000       0.069780
                          3       2    2py              34.460000       1.895593
                                                         7.749000       1.838088
                                                         2.280000       1.239963
                                                         0.715600       0.460662
                                                         0.214000       0.069780
                          3       2    2pz              34.460000       1.895593
                                                         7.749000       1.838088
                                                         2.280000       1.239963
                                                         0.715600       0.460662
                                                         0.214000       0.069780

                          3       3    3px              34.460000       0.000000
                                                         7.749000       0.000000
                                                         2.280000       0.000000
                                                         0.715600       0.000000
                                                         0.214000       0.207471
                          3       3    3py              34.460000       0.000000
                                                         7.749000       0.000000
                                                         2.280000       0.000000
                                                         0.715600       0.000000
                                                         0.214000       0.207471
                          3       3    3pz              34.460000       0.000000
                                                         7.749000       0.000000
                                                         2.280000       0.000000
                                                         0.715600       0.000000
                                                         0.214000       0.207471

                          4       1    1dx2              0.214000       0.110824
                          4       1    1dxy              0.214000       0.191953
                          4       1    1dxz              0.214000       0.191953
                          4       1    1dy2              0.214000       0.110824
                          4       1    1dyz              0.214000       0.191953
                          4       1    1dz2              0.214000       0.110824

                          5       1    1s            15330.000000       0.498804
                                                      2299.000000       0.929707
                                                       522.400000       1.576475
                                                       147.300000       2.386068
                                                        47.550000       2.977116
                                                        16.760000       2.556946
                                                         6.207000       0.981661
                                                         1.752000       0.046374
                                                         0.688200      -0.004391
                                                         0.238400       0.000579

                          5       2    2s            15330.000000       0.000000
                                                      2299.000000       0.000000
                                                       522.400000       0.000000
                                                       147.300000       0.000000
                                                        47.550000       0.000000
                                                        16.760000       0.000000
                                                         6.207000       0.000000
                                                         1.752000       1.085327
                                                         0.688200       0.000000
                                                         0.238400       0.000000

                          5       3    3s            15330.000000      -0.112918
                                                      2299.000000      -0.211781
                                                       522.400000      -0.361041
                                                       147.300000      -0.564236
                                                        47.550000      -0.754491
                                                        16.760000      -0.805621
                                                         6.207000      -0.492541
                                                         1.752000       0.174666
                                                         0.688200       0.324949
                                                         0.238400       0.092100

                          5       4    4s            15330.000000       0.000000
                                                      2299.000000       0.000000
                                                       522.400000       0.000000
                                                       147.300000       0.000000
                                                        47.550000       0.000000
                                                        16.760000       0.000000
                                                         6.207000       0.000000
                                                         1.752000       0.000000
                                                         0.688200       0.000000
                                                         0.238400       0.243159

                          6       1    1fx3              0.500000       0.309483
                          6       1    1fx2y             0.500000       0.692025
                          6       1    1fx2z             0.500000       0.692025
                          6       1    1fxy2             0.500000       0.692025
                          6       1    1fxyz             0.500000       1.198623
                          6       1    1fxz2             0.500000       0.692025
                          6       1    1fy3              0.500000       0.309483
                          6       1    1fy2z             0.500000       0.692025
                          6       1    1fyz2             0.500000       0.692025
                          6       1    1fz3              0.500000       0.309483

                          7       1    1dx2              2.314000       7.145709
                                                         0.645000       0.000000
                          7       1    1dxy              2.314000      12.376731
                                                         0.645000       0.000000
                          7       1    1dxz              2.314000      12.376731
                                                         0.645000       0.000000
                          7       1    1dy2              2.314000       7.145709
                                                         0.645000       0.000000
                          7       1    1dyz              2.314000      12.376731
                                                         0.645000       0.000000
                          7       1    1dz2              2.314000       7.145709
                                                         0.645000       0.000000

                          7       2    2dx2              2.314000       0.000000
                                                         0.645000       0.764080
                          7       2    2dxy              2.314000       0.000000
                                                         0.645000       1.323426
                          7       2    2dxz              2.314000       0.000000
                                                         0.645000       1.323426
                          7       2    2dy2              2.314000       0.000000
                                                         0.645000       0.764080
                          7       2    2dyz              2.314000       0.000000
                                                         0.645000       1.323426
                          7       2    2dz2              2.314000       0.000000
                                                         0.645000       0.764080

                          8       1    1fx3              1.428000       3.281655
                          8       1    1fx2y             1.428000       7.338004
                          8       1    1fx2z             1.428000       7.338004
                          8       1    1fxy2             1.428000       7.338004
                          8       1    1fxyz             1.428000      12.709795
                          8       1    1fxz2             1.428000       7.338004
                          8       1    1fy3              1.428000       3.281655
                          8       1    1fy2z             1.428000       7.338004
                          8       1    1fyz2             1.428000       7.338004
                          8       1    1fz3              1.428000       3.281655

     RI Auxiliary Basis Set                                    aug-cc-pVTZ-OPTRI

       Number of orbital shell sets:                                          18
       Number of orbital shells:                                              18
       Number of primitive Cartesian functions:                               18
       Number of Cartesian basis functions:                                  103
       Number of spherical basis functions:                                   78
       Norm type:                                                              2

       Normalised Cartesian orbitals:

                        Set   Shell   Orbital            Exponent    Coefficient

                          1       1    1px               0.089368       0.069649
                          1       1    1py               0.089368       0.069649
                          1       1    1pz               0.089368       0.069649

                          2       1    1s                0.110437       0.136536

                          3       1    1dx2              0.319327       0.223266
                          3       1    1dxy              0.319327       0.386707
                          3       1    1dxz              0.319327       0.386707
                          3       1    1dy2              0.319327       0.223266
                          3       1    1dyz              0.319327       0.386707
                          3       1    1dz2              0.319327       0.223266

                          4       1    1px               0.330145       0.356715
                          4       1    1py               0.330145       0.356715
                          4       1    1pz               0.330145       0.356715

                          5       1    1s                0.453302       0.393732

                          6       1    1fx3              0.749935       0.770473
                          6       1    1fx2y             0.749935       1.722831
                          6       1    1fx2z             0.749935       1.722831
                          6       1    1fxy2             0.749935       1.722831
                          6       1    1fxyz             0.749935       2.984030
                          6       1    1fxz2             0.749935       1.722831
                          6       1    1fy3              0.749935       0.770473
                          6       1    1fy2z             0.749935       1.722831
                          6       1    1fyz2             0.749935       1.722831
                          6       1    1fz3              0.749935       0.770473

                          7       1    1px               1.067952       1.547497
                          7       1    1py               1.067952       1.547497
                          7       1    1pz               1.067952       1.547497

                          8       1    1gx4              1.075471       1.359352
                          8       1    1gx3y             1.075471       3.596507
                          8       1    1gx3z             1.075471       3.596507
                          8       1    1gx2y2            1.075471       4.643070
                          8       1    1gx2yz            1.075471       8.042034
                          8       1    1gx2z2            1.075471       4.643070
                          8       1    1gxy3             1.075471       3.596507
                          8       1    1gxy2z            1.075471       8.042034
                          8       1    1gxyz2            1.075471       8.042034
                          8       1    1gxz3             1.075471       3.596507
                          8       1    1gy4              1.075471       1.359352
                          8       1    1gy3z             1.075471       3.596507
                          8       1    1gy2z2            1.075471       4.643070
                          8       1    1gyz3             1.075471       3.596507
                          8       1    1gz4              1.075471       1.359352

                          9       1    1dx2              1.374781       2.872884
                          9       1    1dxy              1.374781       4.975981
                          9       1    1dxz              1.374781       4.975981
                          9       1    1dy2              1.374781       2.872884
                          9       1    1dyz              1.374781       4.975981
                          9       1    1dz2              1.374781       2.872884

                         10       1    1px               2.352584       4.153092
                         10       1    1py               2.352584       4.153092
                         10       1    1pz               2.352584       4.153092

                         11       1    1gx4              3.141319      25.911559
                         11       1    1gx3y             3.141319      68.555540
                         11       1    1gx3z             3.141319      68.555540
                         11       1    1gx2y2            3.141319      88.504822
                         11       1    1gx2yz            3.141319     153.294849
                         11       1    1gx2z2            3.141319      88.504822
                         11       1    1gxy3             3.141319      68.555540
                         11       1    1gxy2z            3.141319     153.294849
                         11       1    1gxyz2            3.141319     153.294849
                         11       1    1gxz3             3.141319      68.555540
                         11       1    1gy4              3.141319      25.911559
                         11       1    1gy3z             3.141319      68.555540
                         11       1    1gy2z2            3.141319      88.504822
                         11       1    1gyz3             3.141319      68.555540
                         11       1    1gz4              3.141319      25.911559

                         12       1    1fx3              3.242493      20.769800
                         12       1    1fx2y             3.242493      46.442684
                         12       1    1fx2z             3.242493      46.442684
                         12       1    1fxy2             3.242493      46.442684
                         12       1    1fxyz             3.242493      80.441088
                         12       1    1fxz2             3.242493      46.442684
                         12       1    1fy3              3.242493      20.769800
                         12       1    1fy2z             3.242493      46.442684
                         12       1    1fyz2             3.242493      46.442684
                         12       1    1fz3              3.242493      20.769800

                         13       1    1s                3.375893       1.775013

                         14       1    1dx2              4.278700      20.951020
                         14       1    1dxy              4.278700      36.288231
                         14       1    1dxz              4.278700      36.288231
                         14       1    1dy2              4.278700      20.951020
                         14       1    1dyz              4.278700      36.288231
                         14       1    1dz2              4.278700      20.951020

                         15       1    1px               5.456091      11.886174
                         15       1    1py               5.456091      11.886174
                         15       1    1pz               5.456091      11.886174

                         16       1    1fx3              6.915251     114.162201
                         16       1    1fx2y             6.915251     255.274442
                         16       1    1fx2z             6.915251     255.274442
                         16       1    1fxy2             6.915251     255.274442
                         16       1    1fxyz             6.915251     442.148303
                         16       1    1fxz2             6.915251     255.274442
                         16       1    1fy3              6.915251     114.162201
                         16       1    1fy2z             6.915251     255.274442
                         16       1    1fyz2             6.915251     255.274442
                         16       1    1fz3              6.915251     114.162201

                         17       1    1s               11.352581       4.407893

                         18       1    1dx2             12.069849     128.643448
                         18       1    1dxy             12.069849     222.816987
                         18       1    1dxz             12.069849     222.816987
                         18       1    1dy2             12.069849     128.643448
                         18       1    1dyz             12.069849     222.816987
                         18       1    1dz2             12.069849     128.643448

       Atomic covalent radius [Angstrom]:                                  0.730

       Atomic van der Waals radius [Angstrom]:                             1.520

     The atoms of this atomic kind are PAW atoms (GAPW):
       Hard Gaussian function radius:                                      1.512
       Rho0 radius:                                                        1.512
       Maximum GTO radius used for PAW projector construction:            24.566

     GAPW Soft Basis Set                                        aug-cc-pVTZ_soft

       Number of orbital shell sets:                                           8
       Number of orbital shells:                                              14
       Number of primitive Cartesian functions:                               13
       Number of Cartesian basis functions:                                   55
       Number of spherical basis functions:                                   46
       Norm type:                                                              2

       Normalised Cartesian orbitals:

                        Set   Shell   Orbital            Exponent    Coefficient

                          1       1    1px               0.059740       0.042099
                          1       1    1py               0.059740       0.042099
                          1       1    1pz               0.059740       0.042099

                          2       1    1s                0.073760       0.100873

                          3       1    1px               2.280000       0.000000
                                                         0.715600       0.938162
                                                         0.214000       0.000000
                          3       1    1py               2.280000       0.000000
                                                         0.715600       0.938162
                                                         0.214000       0.000000
                          3       1    1pz               2.280000       0.000000
                                                         0.715600       0.938162
                                                         0.214000       0.000000

                          3       2    2px               2.280000       1.239963
                                                         0.715600       0.460662
                                                         0.214000       0.069780
                          3       2    2py               2.280000       1.239963
                                                         0.715600       0.460662
                                                         0.214000       0.069780
                          3       2    2pz               2.280000       1.239963
                                                         0.715600       0.460662
                                                         0.214000       0.069780

                          3       3    3px               2.280000       0.000000
                                                         0.715600       0.000000
                                                         0.214000       0.207471
                          3       3    3py               2.280000       0.000000
                                                         0.715600       0.000000
                                                         0.214000       0.207471
                          3       3    3pz               2.280000       0.000000
                                                         0.715600       0.000000
                                                         0.214000       0.207471

                          4       1    1dx2              0.214000       0.110824
                          4       1    1dxy              0.214000       0.191953
                          4       1    1dxz              0.214000       0.191953
                          4       1    1dy2              0.214000       0.110824
                          4       1    1dyz              0.214000       0.191953
                          4       1    1dz2              0.214000       0.110824

                          5       1    1s                1.752000       0.046374
                                                         0.688200      -0.004391
                                                         0.238400       0.000579

                          5       2    2s                1.752000       1.085327
                                                         0.688200       0.000000
                                                         0.238400       0.000000

                          5       3    3s                1.752000       0.174666
                                                         0.688200       0.324949
                                                         0.238400       0.092100

                          5       4    4s                1.752000       0.000000
                                                         0.688200       0.000000
                                                         0.238400       0.243159

                          6       1    1fx3              0.500000       0.309483
                          6       1    1fx2y             0.500000       0.692025
                          6       1    1fx2z             0.500000       0.692025
                          6       1    1fxy2             0.500000       0.692025
                          6       1    1fxyz             0.500000       1.198623
                          6       1    1fxz2             0.500000       0.692025
                          6       1    1fy3              0.500000       0.309483
                          6       1    1fy2z             0.500000       0.692025
                          6       1    1fyz2             0.500000       0.692025
                          6       1    1fz3              0.500000       0.309483

                          7       1    1dx2              2.314000       7.145709
                                                         0.645000       0.000000
                          7       1    1dxy              2.314000      12.376731
                                                         0.645000       0.000000
                          7       1    1dxz              2.314000      12.376731
                                                         0.645000       0.000000
                          7       1    1dy2              2.314000       7.145709
                                                         0.645000       0.000000
                          7       1    1dyz              2.314000      12.376731
                                                         0.645000       0.000000
                          7       1    1dz2              2.314000       7.145709
                                                         0.645000       0.000000

                          7       2    2dx2              2.314000       0.000000
                                                         0.645000       0.764080
                          7       2    2dxy              2.314000       0.000000
                                                         0.645000       1.323426
                          7       2    2dxz              2.314000       0.000000
                                                         0.645000       1.323426
                          7       2    2dy2              2.314000       0.000000
                                                         0.645000       0.764080
                          7       2    2dyz              2.314000       0.000000
                                                         0.645000       1.323426
                          7       2    2dz2              2.314000       0.000000
                                                         0.645000       0.764080

                          8       1    1fx3              1.428000       3.281655
                          8       1    1fx2y             1.428000       7.338004
                          8       1    1fx2z             1.428000       7.338004
                          8       1    1fxy2             1.428000       7.338004
                          8       1    1fxyz             1.428000      12.709795
                          8       1    1fxz2             1.428000       7.338004
                          8       1    1fy3              1.428000       3.281655
                          8       1    1fy2z             1.428000       7.338004
                          8       1    1fyz2             1.428000       7.338004
                          8       1    1fz3              1.428000       3.281655

     AE Potential information for                                            ALL

       Description:                                       All-electron potential
                                          Krack, Parrinello, PCCP 2, 2105 (2000)

       Gaussian exponent of the core charge distribution:               8.154466
       Electronic configuration (s p d ...):                           4   4   0


 MOLECULE KIND INFORMATION


 All atoms are their own molecule, skipping detailed information


 TOTAL NUMBERS AND MAXIMUM NUMBERS

  Total number of            - Atomic kinds:                                   1
                             - Atoms:                                          2
                             - Shell sets:                                    16
                             - Shells:                                        28
                             - Primitive Cartesian functions:                 44
                             - Cartesian basis functions:                    110
                             - Spherical basis functions:                     92

  Maximum angular momentum of the orbital basis functions:                     3


 MODULE QUICKSTEP: ATOMIC COORDINATES IN ANGSTROM

   Atom Kind Element         X             Y             Z       Z(eff)     Mass
      1    1 O     8     15.603900     15.000000     15.000000   8.0000  15.9994
      2    1 O     8     14.396100     15.000000     15.000000   8.0000  15.9994



 SCF PARAMETERS         Density guess:                                    ATOMIC
                        --------------------------------------------------------
                        max_scf:                                             500
                        max_scf_history:                                       0
                        max_diis:                                              4
                        --------------------------------------------------------
                        eps_scf:                                        1.00E-06
                        eps_scf_history:                                0.00E+00
                        eps_diis:                                       1.00E-01
                        eps_eigval:                                     1.00E-05
                        --------------------------------------------------------
                        level_shift [a.u.]:                             0.000000
                        added MOs                                        84    0
                        --------------------------------------------------------
                        Mixing method:                            BROYDEN_MIXING
                                                charge density mixing in g-space
                        --------------------------------------------------------
                        No outer SCF

 PW_GRID| Information for grid number                                          1
 PW_GRID| Grid distributed over                                    48 processors
 PW_GRID| Real space group dimensions                                    48    1
 PW_GRID| the grid is blocked:                                                NO
 PW_GRID| Cutoff [a.u.]                                                    250.0
 PW_GRID| spherical cutoff:                                                   NO
 PW_GRID|   Bounds   1           -202     202                Points:         405
 PW_GRID|   Bounds   2           -202     202                Points:         405
 PW_GRID|   Bounds   3           -202     202                Points:         405
 PW_GRID| Volume element (a.u.^3)  0.2743E-02     Volume (a.u.^3)    182205.0337
 PW_GRID| Grid span                                                    FULLSPACE
 PW_GRID|   Distribution                         Average         Max         Min
 PW_GRID|   G-Vectors                          1383960.9     1384290     1383885
 PW_GRID|   G-Rays                                3417.2        3418        3417
 PW_GRID|   Real Space Points                  1383960.9     1476225     1312200

 PW_GRID| Information for grid number                                          2
 PW_GRID| Number of the reference grid                                         1
 PW_GRID| Grid distributed over                                    48 processors
 PW_GRID| Real space group dimensions                                    48    1
 PW_GRID| the grid is blocked:                                                NO
 PW_GRID| Cutoff [a.u.]                                                     83.3
 PW_GRID| spherical cutoff:                                                   NO
 PW_GRID|   Bounds   1           -120     119                Points:         240
 PW_GRID|   Bounds   2           -120     119                Points:         240
 PW_GRID|   Bounds   3           -120     119                Points:         240
 PW_GRID| Volume element (a.u.^3)  0.1318E-01     Volume (a.u.^3)    182205.0337
 PW_GRID| Grid span                                                    FULLSPACE
 PW_GRID|   Distribution                         Average         Max         Min
 PW_GRID|   G-Vectors                           288000.0      288720      287520
 PW_GRID|   G-Rays                                1200.0        1203        1198
 PW_GRID|   Real Space Points                   288000.0      288000      288000

 PW_GRID| Information for grid number                                          3
 PW_GRID| Number of the reference grid                                         1
 PW_GRID| Grid distributed over                                    48 processors
 PW_GRID| Real space group dimensions                                    48    1
 PW_GRID| the grid is blocked:                                                NO
 PW_GRID| Cutoff [a.u.]                                                     27.8
 PW_GRID| spherical cutoff:                                                   NO
 PW_GRID|   Bounds   1            -67      67                Points:         135
 PW_GRID|   Bounds   2            -67      67                Points:         135
 PW_GRID|   Bounds   3            -67      67                Points:         135
 PW_GRID| Volume element (a.u.^3)  0.7406E-01     Volume (a.u.^3)    182205.0337
 PW_GRID| Grid span                                                    FULLSPACE
 PW_GRID|   Distribution                         Average         Max         Min
 PW_GRID|   G-Vectors                            51257.8       51570       51030
 PW_GRID|   G-Rays                                 379.7         382         378
 PW_GRID|   Real Space Points                    51257.8       54675       36450

 PW_GRID| Information for grid number                                          4
 PW_GRID| Number of the reference grid                                         1
 PW_GRID| Grid distributed over                                    48 processors
 PW_GRID| Real space group dimensions                                    48    1
 PW_GRID| the grid is blocked:                                                NO
 PW_GRID| Cutoff [a.u.]                                                      9.3
 PW_GRID| spherical cutoff:                                                   NO
 PW_GRID|   Bounds   1            -40      39                Points:          80
 PW_GRID|   Bounds   2            -40      39                Points:          80
 PW_GRID|   Bounds   3            -40      39                Points:          80
 PW_GRID| Volume element (a.u.^3)  0.3559         Volume (a.u.^3)    182205.0337
 PW_GRID| Grid span                                                    FULLSPACE
 PW_GRID|   Distribution                         Average         Max         Min
 PW_GRID|   G-Vectors                            10666.7       10800       10560
 PW_GRID|   G-Rays                                 133.3         135         132
 PW_GRID|   Real Space Points                    10666.7       12800        6400

 POISSON| Solver                                                         WAVELET
 POISSON| Wavelet| Scaling function                                           40
 POISSON| Periodicity                                                       NONE

 RS_GRID| Information for grid number                                          1
 RS_GRID|   Bounds   1           -202     202                Points:         405
 RS_GRID|   Bounds   2           -202     202                Points:         405
 RS_GRID|   Bounds   3           -202     202                Points:         405
 RS_GRID| Real space distribution over                                  3 groups
 RS_GRID| Real space distribution along direction                              1
 RS_GRID| Border size                                                         34
 RS_GRID| Real space distribution over                                  4 groups
 RS_GRID| Real space distribution along direction                              2
 RS_GRID| Border size                                                         34
 RS_GRID| Real space distribution over                                  4 groups
 RS_GRID| Real space distribution along direction                              3
 RS_GRID| Border size                                                         34
 RS_GRID|   Distribution                         Average         Max         Min
 RS_GRID|   Planes                                 203.0         203         203
 RS_GRID|   Distribution                         Average         Max         Min
 RS_GRID|   Planes                                 169.2         170         169
 RS_GRID|   Distribution                         Average         Max         Min
 RS_GRID|   Planes                                 169.2         170         169

 RS_GRID| Information for grid number                                          2
 RS_GRID|   Bounds   1           -120     119                Points:         240
 RS_GRID|   Bounds   2           -120     119                Points:         240
 RS_GRID|   Bounds   3           -120     119                Points:         240
 RS_GRID| Real space distribution over                                  3 groups
 RS_GRID| Real space distribution along direction                              1
 RS_GRID| Border size                                                         37
 RS_GRID| Real space distribution over                                  4 groups
 RS_GRID| Real space distribution along direction                              2
 RS_GRID| Border size                                                         37
 RS_GRID| Real space distribution over                                  4 groups
 RS_GRID| Real space distribution along direction                              3
 RS_GRID| Border size                                                         37
 RS_GRID|   Distribution                         Average         Max         Min
 RS_GRID|   Planes                                 154.0         154         154
 RS_GRID|   Distribution                         Average         Max         Min
 RS_GRID|   Planes                                 134.0         134         134
 RS_GRID|   Distribution                         Average         Max         Min
 RS_GRID|   Planes                                 134.0         134         134

 RS_GRID| Information for grid number                                          3
 RS_GRID|   Bounds   1            -67      67                Points:         135
 RS_GRID|   Bounds   2            -67      67                Points:         135
 RS_GRID|   Bounds   3            -67      67                Points:         135
 RS_GRID| Real space fully replicated
 RS_GRID| Group size                                                           1

 RS_GRID| Information for grid number                                          4
 RS_GRID|   Bounds   1            -40      39                Points:          80
 RS_GRID|   Bounds   2            -40      39                Points:          80
 RS_GRID|   Bounds   3            -40      39                Points:          80
 RS_GRID| Real space fully replicated
 RS_GRID| Group size                                                           1

  HFX_INFO| Replica ID:                                                        1
  HFX_INFO| FRACTION:                                               0.2500000000
  HFX_INFO| Interaction Potential:                                       COULOMB
  HFX_INFO| EPS_SCHWARZ:                                                 1.0E-10
  HFX_INFO| EPS_SCHWARZ_FORCES                                           1.0E-08
  HFX_INFO| EPS_STORAGE_SCALING:                                         1.0E+00
  HFX_INFO| NBINS:                                                            64
  HFX_INFO| BLOCK_SIZE:                                                        1
  HFX_INFO| Number of periodic shells considered:                           NONE
  HFX_INFO| Number of periodic cells considered:                            NONE

 
 RI-RPA| using GPW style
 

 OVERLAP MATRIX CONDITION NUMBER
 1-Norm Condition Number (Estimate)
   CN : |A|*|A^-1|:  7.978E+000 *  7.000E+003   = 5.584E+004  Log(1-CN):  4.7470
 1-Norm and 2-Norm Condition Numbers using Diagonalization
   CN : |A|*|A^-1|:  7.978E+000 *  7.000E+003   = 5.584E+004  Log(1-CN):  4.7470
   CN : max/min ev:  5.429E+000 /  2.268E-004   = 2.393E+004  Log(2-CN):  4.3790

 Number of electrons:                                                         16
 Number of occupied orbitals:                                                  8
 Number of molecular orbitals:                                                92

 Number of orbital functions:                                                 92
 Number of independent orbital functions:                                     92

 Extrapolation method: initial_guess

 Atomic guess: The first density matrix is obtained in terms of atomic orbitals
               and electronic configurations assigned to each atomic kind

 Guess for atomic kind: O

 Electronic structure
    Total number of core electrons                                          0.00
    Total number of valence electrons                                       8.00
    Total number of electrons                                               8.00
    Multiplicity                                                   not specified
    S      2.00  2.00
    P      4.00


 *******************************************************************************
                  Iteration          Convergence                     Energy [au]
 *******************************************************************************
                          1        0.530240                     -74.362300390574
                          2        0.762976                     -74.344519024050
                          3        0.439071E-01                 -74.463017025563
                          4        0.190226E-02                 -74.463888305987
                          5        0.987076E-04                 -74.463888891335
                          6        0.339746E-05                 -74.463888893980
                          7        0.220960E-05                 -74.463888893982
                          8        0.986056E-08                 -74.463888893983

 Energy components [Hartree]           Total Energy ::          -74.463888893983
                                        Band Energy ::          -40.618939145472
                                     Kinetic Energy ::           74.095955924571
                                   Potential Energy ::         -148.559844818554
                                      Virial (-V/T) ::            2.004965628216
                                        Core Energy ::         -103.013547991002
                                          XC Energy ::           -7.765911134242
                                     Coulomb Energy ::           36.315570231262

 Orbital energies  State     L     Occupation   Energy[a.u.]          Energy[eV]

                       1     0          2.000     -18.760591         -510.501630
                       2     0          2.000      -0.872266          -23.735564

                       1     1          4.000      -0.338307           -9.205789


 Total Electron Density at R=0:                                       296.420976
 Re-scaling the density matrix to get the right number of electrons
                  # Electrons              Trace(P)               Scaling factor
                           16                16.000                        1.000


 SCF WAVEFUNCTION OPTIMIZATION

  Step     Update method      Time    Convergence         Total energy    Change
  ------------------------------------------------------------------------------

  HFX_MEM_INFO| Est. max. program size before HFX [MiB]:                    1329
  HFX_MEM_INFO| Number of cart. primitive ERI's calculated:            118314393
  HFX_MEM_INFO| Number of sph. ERI's calculated:                        26864736
  HFX_MEM_INFO| Number of sph. ERI's stored in-core:                    26864736
  HFX_MEM_INFO| Number of sph. ERI's stored on disk:                           0
  HFX_MEM_INFO| Number of sph. ERI's calculated on the fly:                    0
  HFX_MEM_INFO| Total memory consumption ERI's RAM [MiB]:                     94
  HFX_MEM_INFO| Whereof max-vals [MiB]:                                        2
  HFX_MEM_INFO| Total compression factor ERI's RAM:                         2.19
  HFX_MEM_INFO| Total memory consumption ERI's disk [MiB]:                     0
  HFX_MEM_INFO| Total compression factor ERI's disk:                        0.00
  HFX_MEM_INFO| Size of density/Fock matrix [MiB]:                             0
  HFX_MEM_INFO| Size of buffers [MiB]:                                         0
  HFX_MEM_INFO| Est. max. program size after HFX  [MiB]:                    1831

     1 NoMix/Diag. 0.10E+00    6.9     0.96659804      -150.4038401139 -1.50E+02
     2 Broy./Diag. 0.10E+00    2.6     0.05160220      -150.1268826659  2.77E-01
     3 Broy./Diag. 0.10E+00    2.6     0.06487578      -150.0904447447  3.64E-02
     4 Broy./Diag. 0.10E+00    2.8     0.02211585      -150.2727787794 -1.82E-01
     5 Broy./Diag. 0.10E+00    2.7     0.00431131      -150.1893251771  8.35E-02
     6 Broy./Diag. 0.10E+00    2.7     0.00310342      -150.1608963238  2.84E-02
     7 Broy./Diag. 0.10E+00    2.7     0.00294323      -150.1553611760  5.54E-03
     8 Broy./Diag. 0.10E+00    2.8     0.00048763      -150.1568447522 -1.48E-03
     9 Broy./Diag. 0.10E+00    2.8     0.00147052      -150.1618301004 -4.99E-03
    10 Broy./Diag. 0.10E+00    2.9     0.00052566      -150.1633129232 -1.48E-03
    11 Broy./Diag. 0.10E+00    2.9     0.00034760      -150.1621171208  1.20E-03
    12 Broy./Diag. 0.10E+00    2.9     0.00182104      -150.1664033434 -4.29E-03
    13 Broy./Diag. 0.10E+00    2.9     0.00053729      -150.1705104086 -4.11E-03
    14 Broy./Diag. 0.10E+00    2.9     0.00162911      -150.1654000431  5.11E-03
    15 Broy./Diag. 0.10E+00    2.9     0.00067205      -150.1609823057  4.42E-03
    16 Broy./Diag. 0.10E+00    2.9     0.00047560      -150.1612397022 -2.57E-04
    17 Broy./Diag. 0.10E+00    2.9     0.00134067      -150.1641865519 -2.95E-03
    18 Broy./Diag. 0.10E+00    2.9     0.00054017      -150.1664834539 -2.30E-03
    19 Broy./Diag. 0.10E+00    2.9     0.00074066      -150.1668203260 -3.37E-04
    20 Broy./Diag. 0.10E+00    3.0     0.00040206      -150.1659120780  9.08E-04
    21 Broy./Diag. 0.10E+00    2.9     0.00016564      -150.1649868338  9.25E-04
    22 Broy./Diag. 0.10E+00    2.9     0.00042500      -150.1647761819  2.11E-04
    23 Broy./Diag. 0.10E+00    2.9     0.00006717      -150.1648972645 -1.21E-04
    24 Broy./Diag. 0.10E+00    2.9     0.00003094      -150.1649968565 -9.96E-05
    25 Broy./Diag. 0.10E+00    2.9     0.00002058      -150.1650827811 -8.59E-05
    26 Broy./Diag. 0.10E+00    2.9     0.00004665      -150.1652285779 -1.46E-04
    27 Broy./Diag. 0.10E+00    2.9     0.00002971      -150.1651226472  1.06E-04
    28 Broy./Diag. 0.10E+00    2.9     0.00001227      -150.1649289850  1.94E-04
    29 Broy./Diag. 0.10E+00    2.9     0.00001530      -150.1648172096  1.12E-04
    30 Broy./Diag. 0.10E+00    3.1     0.00002101      -150.1647223196  9.49E-05
    31 Broy./Diag. 0.10E+00    3.0     0.00000827      -150.1647244476 -2.13E-06
    32 Broy./Diag. 0.10E+00    3.0     0.00000985      -150.1647641450 -3.97E-05
    33 Broy./Diag. 0.10E+00    2.9     0.00003691      -150.1648032204 -3.91E-05
    34 Broy./Diag. 0.10E+00    3.0     0.00001751      -150.1648310944 -2.79E-05
    35 Broy./Diag. 0.10E+00    3.0     0.00000532      -150.1648381106 -7.02E-06
    36 Broy./Diag. 0.10E+00    2.9     0.00000278      -150.1648383171 -2.07E-07
    37 Broy./Diag. 0.10E+00    2.9     0.00000594      -150.1648199468  1.84E-05
    38 Broy./Diag. 0.10E+00    2.9     0.00000529      -150.1648152990  4.65E-06
    39 Broy./Diag. 0.10E+00    2.9     0.00000400      -150.1648333047 -1.80E-05
    40 Broy./Diag. 0.10E+00    2.9     0.00000486      -150.1648425788 -9.27E-06
    41 Broy./Diag. 0.10E+00    3.0     0.00000662      -150.1648406045  1.97E-06
    42 Broy./Diag. 0.10E+00    3.0     0.00001088      -150.1648390459  1.56E-06
    43 Broy./Diag. 0.10E+00    2.9     0.00001185      -150.1648371264  1.92E-06
    44 Broy./Diag. 0.10E+00    2.9     0.00001337      -150.1648298629  7.26E-06
    45 Broy./Diag. 0.10E+00    2.9     0.00002014      -150.1648260345  3.83E-06
    46 Broy./Diag. 0.10E+00    2.9     0.00003046      -150.1648254008  6.34E-07
    47 Broy./Diag. 0.10E+00    2.9     0.00004620      -150.1648246549  7.46E-07
    48 Broy./Diag. 0.10E+00    2.9     0.00007006      -150.1648250899 -4.35E-07
    49 Broy./Diag. 0.10E+00    2.9     0.00010637      -150.1648245812  5.09E-07
    50 Broy./Diag. 0.10E+00    3.0     0.00016137      -150.1648231356  1.45E-06
    51 Broy./Diag. 0.10E+00    3.0     0.00024486      -150.1648218952  1.24E-06
    52 Broy./Diag. 0.10E+00    2.9     0.00037205      -150.1648204568  1.44E-06
    53 Broy./Diag. 0.10E+00    2.9     0.00056411      -150.1648186654  1.79E-06
    54 Broy./Diag. 0.10E+00    2.9     0.00085604      -150.1648261321 -7.47E-06
    55 Broy./Diag. 0.10E+00    2.9     0.00129845      -150.1648333772 -7.25E-06
    56 Broy./Diag. 0.10E+00    3.0     0.00196944      -150.1648347097 -1.33E-06
    57 Broy./Diag. 0.10E+00    2.9     0.00298666      -150.1648398721 -5.16E-06
    58 Broy./Diag. 0.10E+00    2.9     0.00452968      -150.1648408090 -9.37E-07
    59 Broy./Diag. 0.10E+00    2.9     0.00686760      -150.1648289223  1.19E-05
    60 Broy./Diag. 0.10E+00    3.0     0.01040584      -150.1648045460  2.44E-05
    61 Broy./Diag. 0.10E+00    3.0     0.01575073      -150.1647640240  4.05E-05
    62 Broy./Diag. 0.10E+00    3.0     0.02376589      -150.1647032679  6.08E-05
    63 Broy./Diag. 0.10E+00    2.9     0.03563293      -150.1646710957  3.22E-05
    64 Broy./Diag. 0.10E+00    2.9     0.05268527      -150.1645949901  7.61E-05
    65 Broy./Diag. 0.10E+00    2.9     0.07556338      -150.1643259720  2.69E-04
    66 Broy./Diag. 0.10E+00    2.9     0.10149866      -150.1636908750  6.35E-04
    67 Broy./Diag. 0.10E+00    2.9     0.11911539      -150.1623058134  1.39E-03
    68 Broy./Diag. 0.10E+00    2.9     0.16702112      -150.1595666317  2.74E-03
    69 Broy./Diag. 0.10E+00    2.9     0.21355084      -150.1549441429  4.62E-03
    70 Broy./Diag. 0.10E+00    2.9     0.21549189      -150.1487033037  6.24E-03
    71 Broy./Diag. 0.10E+00    3.0     0.17721738      -150.1422497430  6.45E-03
    72 Broy./Diag. 0.10E+00    3.0     0.12535368      -150.1371797201  5.07E-03
    73 Broy./Diag. 0.10E+00    2.9     0.09722908      -150.1338813638  3.30E-03
    74 Broy./Diag. 0.10E+00    2.9     0.08489777      -150.1319012846  1.98E-03
    75 Broy./Diag. 0.10E+00    3.0     0.06919216      -150.1307756729  1.13E-03
    76 Broy./Diag. 0.10E+00    2.9     0.05440778      -150.1301732832  6.02E-04
    77 Broy./Diag. 0.10E+00    3.1     0.04242574      -150.1299968719  1.76E-04
    78 Broy./Diag. 0.10E+00    2.9     0.03630178      -150.1313338882 -1.34E-03
    79 Broy./Diag. 0.10E+00    3.0     0.03098156      -150.1322526545 -9.19E-04
    80 Broy./Diag. 0.10E+00    2.9     0.02920587      -150.1336684712 -1.42E-03
    81 Broy./Diag. 0.10E+00    3.0     0.03203411      -150.1380330461 -4.36E-03
    82 Broy./Diag. 0.10E+00    2.9     0.04847528      -150.1386239718 -5.91E-04
    83 Broy./Diag. 0.10E+00    2.9     0.09256485      -150.1365534954  2.07E-03
    84 Broy./Diag. 0.10E+00    2.9     0.14067567      -150.1260315074  1.05E-02
    85 Broy./Diag. 0.10E+00    2.9     0.15118989      -150.2150706751 -8.90E-02
    86 Broy./Diag. 0.10E+00    3.0     0.12898043      -150.3887766265 -1.74E-01
    87 Broy./Diag. 0.10E+00    2.9     0.05801787      -150.3106801337  7.81E-02
    88 Broy./Diag. 0.10E+00    2.9     0.07374152      -150.3542920724 -4.36E-02
    89 Broy./Diag. 0.10E+00    2.9     0.28454314      -150.2782221943  7.61E-02
    90 Broy./Diag. 0.10E+00    2.9     0.08748460      -150.2597260282  1.85E-02
    91 Broy./Diag. 0.10E+00    2.9     0.09512477      -150.1694439289  9.03E-02
    92 Broy./Diag. 0.10E+00    3.0     0.01312744      -150.1323231799  3.71E-02
    93 Broy./Diag. 0.10E+00    2.9     0.02519375      -150.1072413866  2.51E-02
    94 Broy./Diag. 0.10E+00    2.9     0.28619492      -150.0502603664  5.70E-02
    95 Broy./Diag. 0.10E+00    3.0     0.37735127      -149.9361372234  1.14E-01
    96 Broy./Diag. 0.10E+00    3.0     0.12674448      -150.0079764210 -7.18E-02
    97 Broy./Diag. 0.10E+00    2.9     0.06813693      -149.9684025857  3.96E-02
    98 Broy./Diag. 0.10E+00    3.0     0.04580853      -149.9237941490  4.46E-02
    99 Broy./Diag. 0.10E+00    2.9     0.04689209      -149.8710533250  5.27E-02
   100 Broy./Diag. 0.10E+00    2.9     0.08592763      -149.9221923318 -5.11E-02
   101 Broy./Diag. 0.10E+00    2.9     0.08117310      -150.0029425303 -8.08E-02
   102 Broy./Diag. 0.10E+00    3.0     0.15206496      -149.9271739448  7.58E-02
   103 Broy./Diag. 0.10E+00    3.0     0.23988390      -149.8971683320  3.00E-02
   104 Broy./Diag. 0.10E+00    3.0     0.17577764      -149.8711496506  2.60E-02
   105 Broy./Diag. 0.10E+00    2.9     0.25614235      -149.7769412813  9.42E-02
   106 Broy./Diag. 0.10E+00    2.9     0.05051942      -149.8772392553 -1.00E-01
   107 Broy./Diag. 0.10E+00    2.9     0.04870270      -149.8418658916  3.54E-02
   108 Broy./Diag. 0.10E+00    2.9     0.19794390      -149.9386909364 -9.68E-02
   109 Broy./Diag. 0.10E+00    3.0     0.18087811      -150.1156852077 -1.77E-01
   110 Broy./Diag. 0.10E+00    2.9     0.26363899      -150.0564017672  5.93E-02
   111 Broy./Diag. 0.10E+00    2.9     0.15499099      -149.9858535108  7.05E-02
   112 Broy./Diag. 0.10E+00    3.0     0.10354686      -149.9716553807  1.42E-02
   113 Broy./Diag. 0.10E+00    2.9     0.04004478      -150.0138724918 -4.22E-02
   114 Broy./Diag. 0.10E+00    2.9     0.02165808      -150.0402779669 -2.64E-02
   115 Broy./Diag. 0.10E+00    2.9     0.00517504      -150.0462932734 -6.02E-03
   116 Broy./Diag. 0.10E+00    2.9     0.24332094      -150.0718417024 -2.55E-02
   117 Broy./Diag. 0.10E+00    3.0     0.28941725      -150.1417302377 -6.99E-02
   118 Broy./Diag. 0.10E+00    2.9     0.34645855      -150.0998800295  4.19E-02
   119 Broy./Diag. 0.10E+00    3.0     0.11424495      -150.0369739077  6.29E-02
   120 Broy./Diag. 0.10E+00    3.0     0.03896193      -149.9625535803  7.44E-02
   121 Broy./Diag. 0.10E+00    2.9     0.03699335      -149.9941030669 -3.15E-02
   122 Broy./Diag. 0.10E+00    3.0     0.09070910      -149.9334120622  6.07E-02
   123 Broy./Diag. 0.10E+00    3.0     0.10834018      -149.9552433289 -2.18E-02
   124 Broy./Diag. 0.10E+00    3.0     0.20755063      -150.0324895177 -7.72E-02
   125 Broy./Diag. 0.10E+00    3.0     0.18948087      -149.9937353347  3.88E-02
   126 Broy./Diag. 0.10E+00    3.0     0.24537920      -149.8914632974  1.02E-01
   127 Broy./Diag. 0.10E+00    3.0     0.13103208      -150.0098309374 -1.18E-01
   128 Broy./Diag. 0.10E+00    2.9     0.02753127      -150.1984800952 -1.89E-01
   129 Broy./Diag. 0.10E+00    2.9     0.00334287      -150.2415999683 -4.31E-02
   130 Broy./Diag. 0.10E+00    3.0     0.03306307      -150.2896574577 -4.81E-02
   131 Broy./Diag. 0.10E+00    3.1     0.14337477      -150.2779912131  1.17E-02
   132 Broy./Diag. 0.10E+00    3.0     0.27609898      -150.3517101901 -7.37E-02
   133 Broy./Diag. 0.10E+00    3.0     0.39584556      -150.3935994110 -4.19E-02
   134 Broy./Diag. 0.10E+00    3.0     0.13726564      -150.3844379522  9.16E-03
   135 Broy./Diag. 0.10E+00    2.9     0.11127903      -150.3076319823  7.68E-02
   136 Broy./Diag. 0.10E+00    2.9     0.04068311      -150.0859091030  2.22E-01
   137 Broy./Diag. 0.10E+00    2.9     0.02812547      -150.0804718505  5.44E-03
   138 Broy./Diag. 0.10E+00    2.9     0.01294236      -150.1539459694 -7.35E-02
   139 Broy./Diag. 0.10E+00    2.9     0.01161830      -150.1509607855  2.99E-03
   140 Broy./Diag. 0.10E+00    2.9     0.01372015      -150.1232046154  2.78E-02
   141 Broy./Diag. 0.10E+00    2.9     0.03771406      -150.1388775321 -1.57E-02
   142 Broy./Diag. 0.10E+00    3.0     0.15731844      -150.2393659897 -1.00E-01
   143 Broy./Diag. 0.10E+00    3.0     0.13581944      -150.3200506221 -8.07E-02
   144 Broy./Diag. 0.10E+00    3.0     0.29106917      -150.2800169867  4.00E-02
   145 Broy./Diag. 0.10E+00    3.0     0.29713965      -150.1571338626  1.23E-01
   146 Broy./Diag. 0.10E+00    3.0     0.08915802      -150.1249759285  3.22E-02
   147 Broy./Diag. 0.10E+00    2.9     0.09964003      -150.1726932936 -4.77E-02
   148 Broy./Diag. 0.10E+00    2.9     0.08703415      -150.1574577562  1.52E-02
   149 Broy./Diag. 0.10E+00    2.9     0.02519339      -150.1197428539  3.77E-02
   150 Broy./Diag. 0.10E+00    2.9     0.01764735      -150.1133764793  6.37E-03
   151 Broy./Diag. 0.10E+00    2.9     0.08867965      -150.0874662482  2.59E-02
   152 Broy./Diag. 0.10E+00    2.9     0.14650464      -150.1220471063 -3.46E-02
   153 Broy./Diag. 0.10E+00    2.9     0.16168711      -150.1163400703  5.71E-03
   154 Broy./Diag. 0.10E+00    2.9     0.21161508      -150.1136261195  2.71E-03
   155 Broy./Diag. 0.10E+00    2.9     0.24057312      -150.0947330778  1.89E-02
   156 Broy./Diag. 0.10E+00    2.9     0.13496756      -150.1317758556 -3.70E-02
   157 Broy./Diag. 0.10E+00    2.9     0.05632229      -150.1593421681 -2.76E-02
   158 Broy./Diag. 0.10E+00    2.9     0.01857084      -150.1738610454 -1.45E-02
   159 Broy./Diag. 0.10E+00    2.9     0.02455122      -150.2038574187 -3.00E-02
   160 Broy./Diag. 0.10E+00    2.9     0.02396802      -150.2257924006 -2.19E-02
   161 Broy./Diag. 0.10E+00    2.9     0.01967938      -150.2345322329 -8.74E-03
   162 Broy./Diag. 0.10E+00    2.9     0.01517218      -150.2382321785 -3.70E-03
   163 Broy./Diag. 0.10E+00    3.0     0.01978726      -150.2284249460  9.81E-03
   164 Broy./Diag. 0.10E+00    2.9     0.00929456      -150.2259586138  2.47E-03
   165 Broy./Diag. 0.10E+00    3.0     0.01710946      -150.2208334939  5.13E-03
   166 Broy./Diag. 0.10E+00    2.9     0.00791081      -150.2118233536  9.01E-03
   167 Broy./Diag. 0.10E+00    2.9     0.01713855      -150.1764489937  3.54E-02
   168 Broy./Diag. 0.10E+00    3.1     0.00792369      -150.1399302604  3.65E-02
   169 Broy./Diag. 0.10E+00    3.0     0.00719776      -150.1304403421  9.49E-03
   170 Broy./Diag. 0.10E+00    2.9     0.02414052      -150.1511570090 -2.07E-02
   171 Broy./Diag. 0.10E+00    2.9     0.01126622      -150.1647864435 -1.36E-02
   172 Broy./Diag. 0.10E+00    2.9     0.00718626      -150.1640144436  7.72E-04
   173 Broy./Diag. 0.10E+00    3.0     0.00106375      -150.1628389312  1.18E-03
   174 Broy./Diag. 0.10E+00    3.0     0.00259244      -150.1613937438  1.45E-03
   175 Broy./Diag. 0.10E+00    3.0     0.00622105      -150.1623204063 -9.27E-04
   176 Broy./Diag. 0.10E+00    2.9     0.00750841      -150.1693898625 -7.07E-03
   177 Broy./Diag. 0.10E+00    2.9     0.00429532      -150.1736925377 -4.30E-03
   178 Broy./Diag. 0.10E+00    2.9     0.00366894      -150.1749830141 -1.29E-03
   179 Broy./Diag. 0.10E+00    2.9     0.00288613      -150.1751608057 -1.78E-04
   180 Broy./Diag. 0.10E+00    2.9     0.00249759      -150.1748533255  3.07E-04
   181 Broy./Diag. 0.10E+00    2.9     0.00075144      -150.1727219518  2.13E-03
   182 Broy./Diag. 0.10E+00    2.9     0.00142896      -150.1681514215  4.57E-03
   183 Broy./Diag. 0.10E+00    3.0     0.00054080      -150.1655043933  2.65E-03
   184 Broy./Diag. 0.10E+00    3.0     0.00240856      -150.1650714150  4.33E-04
   185 Broy./Diag. 0.10E+00    2.9     0.00066132      -150.1652115587 -1.40E-04
   186 Broy./Diag. 0.10E+00    2.9     0.00046284      -150.1653316789 -1.20E-04
   187 Broy./Diag. 0.10E+00    2.9     0.00045199      -150.1656440565 -3.12E-04
   188 Broy./Diag. 0.10E+00    3.0     0.00057312      -150.1657839578 -1.40E-04
   189 Broy./Diag. 0.10E+00    2.9     0.00034441      -150.1657558389  2.81E-05
   190 Broy./Diag. 0.10E+00    2.9     0.00017281      -150.1658206067 -6.48E-05
   191 Broy./Diag. 0.10E+00    2.9     0.00019178      -150.1658451261 -2.45E-05
   192 Broy./Diag. 0.10E+00    2.9     0.00011748      -150.1655406307  3.04E-04
   193 Broy./Diag. 0.10E+00    2.9     0.00005305      -150.1651975481  3.43E-04
   194 Broy./Diag. 0.10E+00    3.0     0.00029540      -150.1649635883  2.34E-04
   195 Broy./Diag. 0.10E+00    2.9     0.00005350      -150.1648114796  1.52E-04
   196 Broy./Diag. 0.10E+00    2.9     0.00011747      -150.1648321317 -2.07E-05
   197 Broy./Diag. 0.10E+00    2.9     0.00014352      -150.1650037001 -1.72E-04
   198 Broy./Diag. 0.10E+00    2.9     0.00006458      -150.1650541454 -5.04E-05
   199 Broy./Diag. 0.10E+00    2.9     0.00006356      -150.1649581729  9.60E-05
   200 Broy./Diag. 0.10E+00    2.9     0.00020411      -150.1648375013  1.21E-04
   201 Broy./Diag. 0.10E+00    2.9     0.00005109      -150.1648256343  1.19E-05
   202 Broy./Diag. 0.10E+00    2.9     0.00003804      -150.1648246012  1.03E-06
   203 Broy./Diag. 0.10E+00    2.9     0.00003234      -150.1648166373  7.96E-06
   204 Broy./Diag. 0.10E+00    3.0     0.00003297      -150.1648250381 -8.40E-06
   205 Broy./Diag. 0.10E+00    2.9     0.00002210      -150.1648263108 -1.27E-06
   206 Broy./Diag. 0.10E+00    2.9     0.00002600      -150.1648258981  4.13E-07
   207 Broy./Diag. 0.10E+00    3.0     0.00006610      -150.1648236878  2.21E-06
   208 Broy./Diag. 0.10E+00    3.1     0.00001036      -150.1648290887 -5.40E-06
   209 Broy./Diag. 0.10E+00    2.9     0.00000340      -150.1648292764 -1.88E-07
[...]
 *  O/|                                                                        *
 * /| |                                                                        *
 * / \                                                     bse_full_diag.F:392 *
 *******************************************************************************


 ===== Routine Calling Stack ===== 

            8 create_hermitian_form_of_ABBA
            7 start_bse_calculation
            6 rpa_num_int
            5 rpa_ri_compute_en
            4 mp2_gpw_main
            3 mp2_main
            2 qs_energies
            1 CP2K

 *******************************************************************************
 *   ___                                                                       *
 *  /   \                                                                      *
 * [ABORT]                                                                     *
 *  \___/  Matrix (A-B) is not positive definite. Hermitian diagonalization of *
 *    |                      full ABBA matrix is ill-defined.                  *
 *  O/|                                                                        *
 * /| |                                                                        *
 * / \                                                     bse_full_diag.F:392 *
 *******************************************************************************


 ===== Routine Calling Stack ===== 

            8 create_hermitian_form_of_ABBA
            7 start_bse_calculation
            6 rpa_num_int
            5 rpa_ri_compute_en
            4 mp2_gpw_main
            3 mp2_main
            2 qs_energies
            1 CP2K

            8 create_hermitian_form_of_ABBA
            7 start_bse_calculation
            6 rpa_num_int
            5 rpa_ri_compute_en
            4 mp2_gpw_main
            3 mp2_main
            2 qs_energies
            1 CP2K

 *******************************************************************************
 *   ___                                                                       *
 *  /   \                                                                      *
 * [ABORT]                                                                     *
 *  \___/  Matrix (A-B) is not positive definite. Hermitian diagonalization of *
 *    |                      full ABBA matrix is ill-defined.                  *
 *  O/|                                                                        *
 * /| |                                                                        *
 * / \                                                     bse_full_diag.F:392 *
 *******************************************************************************



 *******************************************************************************
 *   ___                                                                       *
 *  /   \                                                                      *
 * [ABORT]                                                                     *
 *  \___/  Matrix (A-B) is not positive definite. Hermitian diagonalization of *
 *    |                      full ABBA matrix is ill-defined.                  *
 *  O/|                                                                        *
 * /| |                                                                        *
 * / \                                                     bse_full_diag.F:392 *
 *******************************************************************************


 ===== Routine Calling Stack ===== 

            8 create_hermitian_form_of_ABBA
            7 start_bse_calculation
            6 rpa_num_int
            5 rpa_ri_compute_en
            4 mp2_gpw_main
            3 mp2_main
            2 qs_energies
            1 CP2K
            6 rpa_num_int
            5 rpa_ri_compute_en
            4 mp2_gpw_main
            3 mp2_main
            2 qs_energies
            1 CP2K

 *******************************************************************************
 *   ___                                                                       *
 *  /   \                                                                      *
 * [ABORT]                                                                     *
 *  \___/  Matrix (A-B) is not positive definite. Hermitian diagonalization of *
 *    |                      full ABBA matrix is ill-defined.                  *
 *  O/|                                                                        *
 * /| |                                                                        *
 * / \                                                     bse_full_diag.F:392 *
 *******************************************************************************


 ===== Routine Calling Stack ===== 

            8 create_hermitian_form_of_ABBA
            7 start_bse_calculation
            6 rpa_num_int
            5 rpa_ri_compute_en
            4 mp2_gpw_main
            3 mp2_main
            2 qs_energies
            1 CP2K

 *******************************************************************************
 *   ___                                                                       *
 *  /   \                                                                      *
 * [ABORT]                                                                     *
 *  \___/  Matrix (A-B) is not positive definite. Hermitian diagonalization of *
 *    |                      full ABBA matrix is ill-defined.                  *
 *  O/|                                                                        *
 * /| |                                                                        *
 * / \                                                     bse_full_diag.F:392 *
 *******************************************************************************


 ===== Routine Calling Stack ===== 

            8 create_hermitian_form_of_ABBA
            7 start_bse_calculation
            6 rpa_num_int
            5 rpa_ri_compute_en
            4 mp2_gpw_main
            3 mp2_main
            2 qs_energies
            1 CP2K

 *******************************************************************************
 *   ___                                                                       *
 *  /   \                                                                      *
 * [ABORT]                                                                     *
 *  \___/  Matrix (A-B) is not positive definite. Hermitian diagonalization of *
 *    |                      full ABBA matrix is ill-defined.                  *
 *  O/|                                                                        *
 * /| |                                                                        *
 * / \                                                     bse_full_diag.F:392 *
 *******************************************************************************


 ===== Routine Calling Stack ===== 


 *******************************************************************************
 *   ___                                                                       *
 *  /   \                                                                      *
 * [ABORT]                                                                     *
 *  \___/  Matrix (A-B) is not positive definite. Hermitian diagonalization of *
 *    |                      full ABBA matrix is ill-defined.                  *
 *  O/|                                                                        *
 * /| |                                                                        *
 * / \                                                     bse_full_diag.F:392 *
 *******************************************************************************


 ===== Routine Calling Stack ===== 

            8 create_hermitian_form_of_ABBA
            7 start_bse_calculation
            6 rpa_num_int
            5 rpa_ri_compute_en
            4 mp2_gpw_main
            3 mp2_main
            2 qs_energies
            1 CP2K

 *******************************************************************************
 *   ___                                                                       *
 *  /   \                                                                      *
 * [ABORT]                                                                     *
 *  \___/  Matrix (A-B) is not positive definite. Hermitian diagonalization of *
 *    |                      full ABBA matrix is ill-defined.                  *
 *  O/|                                                                        *
 * /| |                                                                        *
 * / \                                                     bse_full_diag.F:392 *
 *******************************************************************************


 ===== Routine Calling Stack ===== 

            8 create_hermitian_form_of_ABBA
            7 start_bse_calculation
            6 rpa_num_int
            5 rpa_ri_compute_en
            4 mp2_gpw_main
            3 mp2_main
            2 qs_energies
            1 CP2K
            2 qs_energies
            1 CP2K

 *******************************************************************************
 *   ___                                                                       *
 *  /   \                                                                      *
 * [ABORT]                                                                     *
 *  \___/  Matrix (A-B) is not positive definite. Hermitian diagonalization of *
 *    |                      full ABBA matrix is ill-defined.                  *
 *  O/|                                                                        *
 * /| |                                                                        *
 * / \                                                     bse_full_diag.F:392 *
 *******************************************************************************


 ===== Routine Calling Stack ===== 

            8 create_hermitian_form_of_ABBA
            7 start_bse_calculation
            6 rpa_num_int
            5 rpa_ri_compute_en
            4 mp2_gpw_main
            3 mp2_main
            2 qs_energies
            1 CP2K

 *******************************************************************************
 *   ___                                                                       *
 *  /   \                                                                      *
 * [ABORT]                                                                     *
 *  \___/  Matrix (A-B) is not positive definite. Hermitian diagonalization of *
 *    |                      full ABBA matrix is ill-defined.                  *
 *  O/|                                                                        *
 * /| |                                                                        *
 * / \                                                     bse_full_diag.F:392 *
 *******************************************************************************


 ===== Routine Calling Stack ===== 

            8 create_hermitian_form_of_ABBA
            7 start_bse_calculation
            6 rpa_num_int
            5 rpa_ri_compute_en
            4 mp2_gpw_main
            3 mp2_main
            2 qs_energies
            1 CP2K
                                                                    *
 * / \                                                     bse_full_diag.F:392 *
 *******************************************************************************


 ===== Routine Calling Stack ===== 

            8 create_hermitian_form_of_ABBA
            7 start_bse_calculation
            6 rpa_num_int
            5 rpa_ri_compute_en
            4 mp2_gpw_main
            3 mp2_main
            2 qs_energies
            1 CP2K

 *******************************************************************************
 *   ___                                                                       *
 *  /   \                                                                      *
 * [ABORT]                                                                     *
 *  \___/  Matrix (A-B) is not positive definite. Hermitian diagonalization of *
 *    |                      full ABBA matrix is ill-defined.                  *
 *  O/|                                                                        *
 * /| |                                                                        *
 * / \                                                     bse_full_diag.F:392 *
 *******************************************************************************


 ===== Routine Calling Stack ===== 

            8 create_hermitian_form_of_ABBA
            7 start_bse_calculation
            6 rpa_num_int
            5 rpa_ri_compute_en
            4 mp2_gpw_main
            3 mp2_main
            2 qs_energies
            1 CP2K

 *******************************************************************************
 *   ___                                                                       *
 *  /   \                                                                      *
 * [ABORT]                                                                     *
 *  \___/  Matrix (A-B) is not positive definite. Hermitian diagonalization of *
 *    |                      full ABBA matrix is ill-defined.                  *
 *  O/|                                                                        *
 * /| |                                                                        *
 * / \                                                     bse_full_diag.F:392 *
 *******************************************************************************


 ===== Routine Calling Stack ===== 

            8 create_hermitian_form_of_ABBA
            7 start_bse_calculation
            6 rpa_num_int
            5 rpa_ri_compute_en
            4 mp2_gpw_main
            3 mp2_main
            2 qs_energies
            1 CP2K

 *******************************************************************************
 *   ___                                                                       *
 *  /   \                                                                      *
 * [ABORT]                                                                     *
 *  \___/  Matrix (A-B) is not positive definite. Hermitian diagonalization of *
 *    |                      full ABBA matrix is ill-defined.                  *
 *  O/|                                                                        *
 * /| |                                                                        *
 * / \                                                     bse_full_diag.F:392 *
 *******************************************************************************


 ===== Routine Calling Stack ===== 

            8 create_hermitian_form_of_ABBA
            7 start_bse_calculation
            6 rpa_num_int
 *
 *******************************************************************************


 ===== Routine Calling Stack ===== 

            8 create_hermitian_form_of_ABBA
            7 start_bse_calculation
            6 rpa_num_int
            5 rpa_ri_compute_en
            4 mp2_gpw_main
            3 mp2_main
            2 qs_energies
            1 CP2K

 *******************************************************************************
 *   ___                                                                       *
 *  /   \                                                                      *
 * [ABORT]                                                                     *
 *  \___/  Matrix (A-B) is not positive definite. Hermitian diagonalization of *
 *    |                      full ABBA matrix is ill-defined.                  *
 *  O/|                                                                        *
 * /| |                                                                        *
 * / \                                                     bse_full_diag.F:392 *
 *******************************************************************************


 ===== Routine Calling Stack ===== 

            8 create_hermitian_form_of_ABBA
            7 start_bse_calculation
            6 rpa_num_int
            5 rpa_ri_compute_en
            4 mp2_gpw_main
            3 mp2_main
            2 qs_energies
            1 CP2K
 / \                                                     bse_full_diag.F:392 *
 *******************************************************************************


 ===== Routine Calling Stack ===== 

            8 create_hermitian_form_of_ABBA
            7 start_bse_calculation
            6 rpa_num_int
            5 rpa_ri_compute_en
            4 mp2_gpw_main
            3 mp2_main
            2 qs_energies
            1 CP2K
 ===== Routine Calling Stack ===== 

            8 create_hermitian_form_of_ABBA
            7 start_bse_calculation
            6 rpa_num_int
            5 rpa_ri_compute_en
            4 mp2_gpw_main
            3 mp2_main
            2 qs_energies
            1 CP2K

 *******************************************************************************
 *   ___                                                                       *
 *  /   \                                                                      *
 * [ABORT]                                                                     *
 *  \___/  Matrix (A-B) is not positive definite. Hermitian diagonalization of *
 *    |                      full ABBA matrix is ill-defined.                  *
 *  O/|                                                                        *
 * /| |                                                                        *
 * / \                                                     bse_full_diag.F:392 *
 *******************************************************************************


 ===== Routine Calling Stack ===== 

            8 create_hermitian_form_of_ABBA
            7 start_bse_calculation
            6 rpa_num_int
            5 rpa_ri_compute_en
            4 mp2_gpw_main
            3 mp2_main
            2 qs_energies
            1 CP2K

 *******************************************************************************
 *   ___                                                                       *
 *  /   \                                                                      *
 * [ABORT]                                                                     *
 *  \___/  Matrix (A-B) is not positive definite. Hermitian diagonalization of *
 *    |                      full ABBA matrix is ill-defined.                  *
 *  O/|                                                                        *
 * /| |                                                                        *
 * / \                                                     bse_full_diag.F:392 *
 *******************************************************************************


 ===== Routine Calling Stack ===== 

            8 create_hermitian_form_of_ABBA
            7 start_bse_calculation

 ===== Routine Calling Stack ===== 

            8 create_hermitian_form_of_ABBA
            7 start_bse_calculation
            6 rpa_num_int
            5 rpa_ri_compute_en
            4 mp2_gpw_main
            3 mp2_main
            2 qs_energies
            1 CP2K
            8 create_hermitian_form_of_ABBA
            7 start_bse_calculation
            6 rpa_num_int
            5 rpa_ri_compute_en
            4 mp2_gpw_main
            3 mp2_main
            2 qs_energies
            1 CP2K
            5 rpa_ri_compute_en
            4 mp2_gpw_main
            3 mp2_main
            2 qs_energies
            1 CP2K
            6 rpa_num_int
            5 rpa_ri_compute_en
            4 mp2_gpw_main
            3 mp2_main
            2 qs_energies
            1 CP2K
