 DBCSR| CPU Multiplication driver                                           BLAS (U)
 DBCSR| Multrec recursion limit                                              512 (U)
 DBCSR| Multiplication stack size                                           1000 (D)
 DBCSR| Maximum elements for images                                    UNLIMITED (U)
 DBCSR| Multiplicative factor virtual images                                   1 (U)
 DBCSR| Use multiplication densification                                       T (D)
 DBCSR| Multiplication size stacks                                             3 (U)
 DBCSR| Use memory pool for CPU allocation                                     F (U)
 DBCSR| Number of 3D layers                                               SINGLE (U)
 DBCSR| Use MPI memory allocation                                              F (U)
 DBCSR| Use RMA algorithm                                                      F (U)
 DBCSR| Use Communication thread                                               T (U)
 DBCSR| Communication thread load                                             75 (D)
 DBCSR| MPI: My process id                                                     0
 DBCSR| MPI: Number of processes                                              24
 DBCSR| OMP: Current number of threads                                         4
 DBCSR| OMP: Max number of threads                                             4
 DBCSR| Split modifier for TAS multiplication algorithm                  1.0E+00 (U)


  **** **** ******  **  PROGRAM STARTED AT               2025-03-16 13:55:42.809
 ***** ** ***  *** **   PROGRAM STARTED ON                          i04r11c03s06
 **    ****   ******    PROGRAM STARTED BY                               di38fab
 ***** **    ** ** **   PROGRAM PROCESS ID                                227768
  **** **  *******  **  PROGRAM STARTED IN /hppfs/scratch/04/di38fab/05_MOL/W4-1
                                           1+ALK/nh/TZVP/GW+BSE/1e-3

 CP2K| version string:                 CP2K version 2025.1 (Development Version)
 CP2K| source code revision number:                                  git:d2e611a
 CP2K| cp2kflags: omp libint fftw3 libxc parallel scalapack max_contr=4         
 CP2K| is freely available from                            https://www.cp2k.org/
 CP2K| Program compiled at                       Thu 06 Mar 2025 05:09:20 PM CET
 CP2K| Program compiled on                                               login02
 CP2K| Program compiled for                                        Supermuc-foss
 CP2K| Data directory path                  /hppfs/work/pn36zo/di38fab/cp2k/data
 CP2K| Input file name                                                    GW.inp

 GLOBAL| Force Environment number                                              1
 GLOBAL| Basis set file name            /hppfs/scratch/04/di38fab/04_TMD/BASIS_A
 GLOBAL| Potential file name            /hppfs/work/pn36zo/di38fab/cp2k/data/ALL
 GLOBAL| MM Potential file name                                     MM_POTENTIAL
 GLOBAL| Coordinate file name                                      __STD_INPUT__
 GLOBAL| Method name                                                        CP2K
 GLOBAL| Project name                                                       MoS2
 GLOBAL| Run type                                                         ENERGY
 GLOBAL| FFT library                                                       FFTW3
 GLOBAL| Diagonalization library                                       ScaLAPACK
 GLOBAL| DGEMM library                                                      BLAS
 GLOBAL| Orthonormality check for eigenvectors                          DISABLED
 GLOBAL| Matrix multiplication library                                 ScaLAPACK
 GLOBAL| All-to-all communication in single precision                          F
 GLOBAL| FFTs using library dependent lengths                                  F
 GLOBAL| Grid backend                                                       AUTO
 GLOBAL| Global print level                                               MEDIUM
 GLOBAL| MPI I/O enabled                                                       T
 GLOBAL| Total number of message passing processes                            24
 GLOBAL| Number of threads for this process                                    4
 GLOBAL| This output is from process                                           0
 GLOBAL| OpenMP stack size per thread (OMP_STACKSIZE)                    default
 GLOBAL| CPU model name             Intel(R) Xeon(R) Platinum 8174 CPU @ 3.10GHz

 MEMORY| system memory details [Kb]
 MEMORY|                        rank 0           min           max       average
 MEMORY| MemTotal             98436664      98436664      98436664      98436664
 MEMORY| MemFree              83870088      83870088      83961880      83915984
 MEMORY| Buffers                     0             0             0             0
 MEMORY| Cached                2385032       2385032       2389856       2387444
 MEMORY| Slab                  1242848       1242848       1245868       1244358
 MEMORY| SReclaimable           270640        270220        270640        270430
 MEMORY| MemLikelyFree        86525760      86525760      86621956      86573858


 *** Fundamental physical constants (SI units) ***

 *** Literature: B. J. Mohr and B. N. Taylor,
 ***             CODATA recommended values of the fundamental physical
 ***             constants: 2006, Web Version 5.1
 ***             http://physics.nist.gov/constants

 Speed of light in vacuum [m/s]                             2.99792458000000E+08
 Magnetic constant or permeability of vacuum [N/A**2]       1.25663706143592E-06
 Electric constant or permittivity of vacuum [F/m]          8.85418781762039E-12
 Planck constant (h) [J*s]                                  6.62606896000000E-34
 Planck constant (h-bar) [J*s]                              1.05457162825177E-34
 Elementary charge [C]                                      1.60217648700000E-19
 Electron mass [kg]                                         9.10938215000000E-31
 Electron g factor [ ]                                     -2.00231930436220E+00
 Proton mass [kg]                                           1.67262163700000E-27
 Fine-structure constant                                    7.29735253760000E-03
 Rydberg constant [1/m]                                     1.09737315685270E+07
 Avogadro constant [1/mol]                                  6.02214179000000E+23
 Boltzmann constant [J/K]                                   1.38065040000000E-23
 Atomic mass unit [kg]                                      1.66053878200000E-27
 Bohr radius [m]                                            5.29177208590000E-11

 *** Conversion factors ***

 [u] -> [a.u.]                                              1.82288848426455E+03
 [Angstrom] -> [Bohr] = [a.u.]                              1.88972613288564E+00
 [a.u.] = [Bohr] -> [Angstrom]                              5.29177208590000E-01
 [a.u.] -> [s]                                              2.41888432650478E-17
 [a.u.] -> [fs]                                             2.41888432650478E-02
 [a.u.] -> [J]                                              4.35974393937059E-18
 [a.u.] -> [N]                                              8.23872205491840E-08
 [a.u.] -> [K]                                              3.15774647902944E+05
 [a.u.] -> [kJ/mol]                                         2.62549961709828E+03
 [a.u.] -> [kcal/mol]                                       6.27509468713739E+02
 [a.u.] -> [Pa]                                             2.94210107994716E+13
 [a.u.] -> [bar]                                            2.94210107994716E+08
 [a.u.] -> [atm]                                            2.90362800883016E+08
 [a.u.] -> [eV]                                             2.72113838565563E+01
 [a.u.] -> [Hz]                                             6.57968392072181E+15
 [a.u.] -> [1/cm] (wave numbers)                            2.19474631370540E+05
 [a.u./Bohr**2] -> [1/cm]                                   5.14048714338585E+03
 

 CELL_TOP| Volume [angstrom^3]:                                     27000.000000
 CELL_TOP| Vector a [angstrom    30.000     0.000     0.000   |a| =    30.000000
 CELL_TOP| Vector b [angstrom     0.000    30.000     0.000   |b| =    30.000000
 CELL_TOP| Vector c [angstrom     0.000     0.000    30.000   |c| =    30.000000
 CELL_TOP| Angle (b,c), alpha [degree]:                                90.000000
 CELL_TOP| Angle (a,c), beta  [degree]:                                90.000000
 CELL_TOP| Angle (a,b), gamma [degree]:                                90.000000
 CELL_TOP| Numerically orthorhombic:                                         YES
 CELL_TOP| Periodicity                                                      NONE

 GENERATE|  Preliminary Number of Bonds generated:                             0
 GENERATE|  Achieved consistency in connectivity generation.

 CELL| Volume [angstrom^3]:                                         27000.000000
 CELL| Vector a [angstrom]:      30.000     0.000     0.000   |a| =    30.000000
 CELL| Vector b [angstrom]:       0.000    30.000     0.000   |b| =    30.000000
 CELL| Vector c [angstrom]:       0.000     0.000    30.000   |c| =    30.000000
 CELL| Angle (b,c), alpha [degree]:                                    90.000000
 CELL| Angle (a,c), beta  [degree]:                                    90.000000
 CELL| Angle (a,b), gamma [degree]:                                    90.000000
 CELL| Numerically orthorhombic:                                             YES
 CELL| Periodicity                                                          NONE

 CELL_REF| Volume [angstrom^3]:                                     27000.000000
 CELL_REF| Vector a [angstrom    30.000     0.000     0.000   |a| =    30.000000
 CELL_REF| Vector b [angstrom     0.000    30.000     0.000   |b| =    30.000000
 CELL_REF| Vector c [angstrom     0.000     0.000    30.000   |c| =    30.000000
 CELL_REF| Angle (b,c), alpha [degree]:                                90.000000
 CELL_REF| Angle (a,c), beta  [degree]:                                90.000000
 CELL_REF| Angle (a,b), gamma [degree]:                                90.000000
 CELL_REF| Numerically orthorhombic:                                         YES
 CELL_REF| Periodicity                                                      NONE

 *******************************************************************************
 *******************************************************************************
 **                                                                           **
 **     #####                         ##              ##                      **
 **    ##   ##            ##          ##              ##                      **
 **   ##     ##                       ##            ######                    **
 **   ##     ##  ##   ##  ##   #####  ##  ##   ####   ##    #####    #####    **
 **   ##     ##  ##   ##  ##  ##      ## ##   ##      ##   ##   ##  ##   ##   **
 **   ##  ## ##  ##   ##  ##  ##      ####     ###    ##   ######   ######    **
 **    ##  ###   ##   ##  ##  ##      ## ##      ##   ##   ##       ##        **
 **     #######   #####   ##   #####  ##  ##  ####    ##    #####   ##        **
 **           ##                                                    ##        **
 **                                                                           **
 **                                                ... make the atoms dance   **
 **                                                                           **
 **            Copyright (C) by CP2K developers group (2000-2025)             **
 **                      J. Chem. Phys. 152, 194103 (2020)                    **
 **                                                                           **
 *******************************************************************************

 DFT| Spin restricted Kohn-Sham (RKS) calculation                            RKS
 DFT| Multiplicity                                                             1
 DFT| Number of spin states                                                    1
 DFT| Charge                                                                   0
 DFT| Self-interaction correction (SIC)                                       NO
 DFT| Cutoffs: density                                              1.000000E-10
 DFT|          gradient                                             1.000000E-10
 DFT|          tau                                                  1.000000E-10
 DFT|          cutoff_smoothing_range                               0.000000E+00
 DFT| XC density smoothing                                                  NONE
 DFT| XC derivatives                                                          PW

 FUNCTIONAL| PBE:
 FUNCTIONAL| J.P.Perdew, K.Burke, M.Ernzerhof, Phys. Rev. Letter, vol. 77, n 18,
 FUNCTIONAL|  pp. 3865-3868, (1996)sx=0.750sc=1.000{spin unpolarized}           


 QS| Method:                                                                GAPW
 QS| Density plane wave grid type                        NON-SPHERICAL FULLSPACE
 QS| Number of grid levels:                                                    4
 QS| Density cutoff [a.u.]:                                                250.0
 QS| Multi grid cutoff [a.u.]: 1) grid level                               250.0
 QS|                           2) grid level                                83.3
 QS|                           3) grid level                                27.8
 QS|                           4) grid level                                 9.3
 QS| Grid level progression factor:                                          3.0
 QS| Relative density cutoff [a.u.]:                                        50.0
 QS| Interaction thresholds: eps_pgf_orb:                                1.0E-12
 QS|                         eps_filter_matrix:                          0.0E+00
 QS|                         eps_core_charge:                            1.0E-14
 QS|                         eps_rho_gspace:                             1.0E-12
 QS|                         eps_rho_rspace:                             1.0E-12
 QS|                         eps_gvg_rspace:                             1.0E-06
 QS|                         eps_ppl:                                    1.0E-02
 QS|                         eps_ppnl:                                   1.0E-08
 QS| GAPW|      One center basis from orbital basis primitives
 QS| GAPW|                   eps_fit:                                    1.0E-04
 QS| GAPW|                   eps_iso:                                    1.0E-12
 QS| GAPW|                   eps_svd:                                    1.0E-08
 QS| GAPW|                   eps_cpc:                                    1.0E-12
 QS| GAPW|   atom-r-grid: quadrature:                                     GC_LOG
 QS| GAPW|      atom-s-grid:  max l :                                          8
 QS| GAPW|      max_l_rho0 :                                                   2


 ATOMIC KIND INFORMATION

  1. Atomic kind: N                                     Number of atoms:       1

     Orbital Basis Set                                        aug-TZVP-MOLOPT-ae

       Number of orbital shell sets:                                           2
       Number of orbital shells:                                              16
       Number of primitive Cartesian functions:                               13
       Number of Cartesian basis functions:                                   71
       Number of spherical basis functions:                                   56
       Norm type:                                                              2

       Normalised Cartesian orbitals:

                        Set   Shell   Orbital            Exponent    Coefficient

                          1       1    1s                0.045000       0.000000
                                                         0.113512       0.014500
                                                         0.322032       0.036074
                                                         0.930550      -0.061635
                                                         2.987378       0.535699
                                                         8.608625       2.378505
                                                        49.270190       0.802518

                          1       2    2s                0.045000       0.000000
                                                         0.113512       0.032692
                                                         0.322032       0.082974
                                                         0.930550       0.396674
                                                         2.987378       0.054918
                                                         8.608625      -0.061481
                                                        49.270190      -0.622920

                          1       3    3s                0.045000       0.000000
                                                         0.113512       0.047996
                                                         0.322032       0.306069
                                                         0.930550      -0.408076
                                                         2.987378      -0.229943
                                                         8.608625      -0.870010
                                                        49.270190      -0.366977

                          1       4    4s                0.045000       0.000000
                                                         0.113512       0.171213
                                                         0.322032      -0.186943
                                                         0.930550      -0.188982
                                                         2.987378       0.637930
                                                         8.608625      -0.961511
                                                        49.270190      -7.166333

                          1       5    5s                0.045000       0.096440
                                                         0.113512      -0.064027
                                                         0.322032      -0.041902
                                                         0.930550       0.111692
                                                         2.987378       0.000000
                                                         8.608625       0.000000
                                                        49.270190       0.000000

                          1       6    2px               0.045000       0.000000
                                                         0.113512       0.006367
                                                         0.322032       0.040684
                                                         0.930550       0.811118
                                                         2.987378       1.750760
                                                         8.608625       1.288759
                                                        49.270190      12.161855
                          1       6    2py               0.045000       0.000000
                                                         0.113512       0.006367
                                                         0.322032       0.040684
                                                         0.930550       0.811118
                                                         2.987378       1.750760
                                                         8.608625       1.288759
                                                        49.270190      12.161855
                          1       6    2pz               0.045000       0.000000
                                                         0.113512       0.006367
                                                         0.322032       0.040684
                                                         0.930550       0.811118
                                                         2.987378       1.750760
                                                         8.608625       1.288759
                                                        49.270190      12.161855

                          1       7    3px               0.045000       0.000000
                                                         0.113512       0.011134
                                                         0.322032       0.344073
                                                         0.930550      -0.153789
                                                         2.987378      -0.764833
                                                         8.608625       0.375399
                                                        49.270190     -28.403920
                          1       7    3py               0.045000       0.000000
                                                         0.113512       0.011134
                                                         0.322032       0.344073
                                                         0.930550      -0.153789
                                                         2.987378      -0.764833
                                                         8.608625       0.375399
                                                        49.270190     -28.403920
                          1       7    3pz               0.045000       0.000000
                                                         0.113512       0.011134
                                                         0.322032       0.344073
                                                         0.930550      -0.153789
                                                         2.987378      -0.764833
                                                         8.608625       0.375399
                                                        49.270190     -28.403920

                          1       8    4px               0.045000       0.000000
                                                         0.113512       0.104427
                                                         0.322032      -0.047567
                                                         0.930550      -0.121777
                                                         2.987378      -0.049280
                                                         8.608625      -0.402261
                                                        49.270190       8.328837
                          1       8    4py               0.045000       0.000000
                                                         0.113512       0.104427
                                                         0.322032      -0.047567
                                                         0.930550      -0.121777
                                                         2.987378      -0.049280
                                                         8.608625      -0.402261
                                                        49.270190       8.328837
                          1       8    4pz               0.045000       0.000000
                                                         0.113512       0.104427
                                                         0.322032      -0.047567
                                                         0.930550      -0.121777
                                                         2.987378      -0.049280
                                                         8.608625      -0.402261
                                                        49.270190       8.328837

                          1       9    5px               0.045000       0.002493
                                                         0.113512      -0.112828
                                                         0.322032       0.052724
                                                         0.930550       0.295283
                                                         2.987378       0.000000
                                                         8.608625       0.000000
                                                        49.270190       0.000000
                          1       9    5py               0.045000       0.002493
                                                         0.113512      -0.112828
                                                         0.322032       0.052724
                                                         0.930550       0.295283
                                                         2.987378       0.000000
                                                         8.608625       0.000000
                                                        49.270190       0.000000
                          1       9    5pz               0.045000       0.002493
                                                         0.113512      -0.112828
                                                         0.322032       0.052724
                                                         0.930550       0.295283
                                                         2.987378       0.000000
                                                         8.608625       0.000000
                                                        49.270190       0.000000

                          1      10    3dx2              0.045000       0.000000
                                                         0.113512       0.008426
                                                         0.322032       0.004138
                                                         0.930550       0.975526
                                                         2.987378       4.861216
                                                         8.608625     -15.504622
                                                        49.270190     -47.156995
                          1      10    3dxy              0.045000       0.000000
                                                         0.113512       0.014594
                                                         0.322032       0.007167
                                                         0.930550       1.689661
                                                         2.987378       8.419873
                                                         8.608625     -26.854794
                                                        49.270190     -81.678311
                          1      10    3dxz              0.045000       0.000000
                                                         0.113512       0.014594
                                                         0.322032       0.007167
                                                         0.930550       1.689661
                                                         2.987378       8.419873
                                                         8.608625     -26.854794
                                                        49.270190     -81.678311
                          1      10    3dy2              0.045000       0.000000
                                                         0.113512       0.008426
                                                         0.322032       0.004138
                                                         0.930550       0.975526
                                                         2.987378       4.861216
                                                         8.608625     -15.504622
                                                        49.270190     -47.156995
                          1      10    3dyz              0.045000       0.000000
                                                         0.113512       0.014594
                                                         0.322032       0.007167
                                                         0.930550       1.689661
                                                         2.987378       8.419873
                                                         8.608625     -26.854794
                                                        49.270190     -81.678311
                          1      10    3dz2              0.045000       0.000000
                                                         0.113512       0.008426
                                                         0.322032       0.004138
                                                         0.930550       0.975526
                                                         2.987378       4.861216
                                                         8.608625     -15.504622
                                                        49.270190     -47.156995

                          1      11    4dx2              0.045000       0.000000
                                                         0.113512      -0.007657
                                                         0.322032       0.207542
                                                         0.930550       0.469670
                                                         2.987378      -3.348764
                                                         8.608625      17.703387
                                                        49.270190      69.517765
                          1      11    4dxy              0.045000       0.000000
                                                         0.113512      -0.013263
                                                         0.322032       0.359472
                                                         0.930550       0.813493
                                                         2.987378      -5.800229
                                                         8.608625      30.663165
                                                        49.270190     120.408301
                          1      11    4dxz              0.045000       0.000000
                                                         0.113512      -0.013263
                                                         0.322032       0.359472
                                                         0.930550       0.813493
                                                         2.987378      -5.800229
                                                         8.608625      30.663165
                                                        49.270190     120.408301
                          1      11    4dy2              0.045000       0.000000
                                                         0.113512      -0.007657
                                                         0.322032       0.207542
                                                         0.930550       0.469670
                                                         2.987378      -3.348764
                                                         8.608625      17.703387
                                                        49.270190      69.517765
                          1      11    4dyz              0.045000       0.000000
                                                         0.113512      -0.013263
                                                         0.322032       0.359472
                                                         0.930550       0.813493
                                                         2.987378      -5.800229
                                                         8.608625      30.663165
                                                        49.270190     120.408301
                          1      11    4dz2              0.045000       0.000000
                                                         0.113512      -0.007657
                                                         0.322032       0.207542
                                                         0.930550       0.469670
                                                         2.987378      -3.348764
                                                         8.608625      17.703387
                                                        49.270190      69.517765

                          1      12    5dx2              0.045000      -0.000996
                                                         0.113512       0.002353
                                                         0.322032       0.164897
                                                         0.930550       0.509235
                                                         2.987378       0.000000
                                                         8.608625       0.000000
                                                        49.270190       0.000000
                          1      12    5dxy              0.045000      -0.001726
                                                         0.113512       0.004075
                                                         0.322032       0.285610
                                                         0.930550       0.882020
                                                         2.987378       0.000000
                                                         8.608625       0.000000
                                                        49.270190       0.000000
                          1      12    5dxz              0.045000      -0.001726
                                                         0.113512       0.004075
                                                         0.322032       0.285610
                                                         0.930550       0.882020
                                                         2.987378       0.000000
                                                         8.608625       0.000000
                                                        49.270190       0.000000
                          1      12    5dy2              0.045000      -0.000996
                                                         0.113512       0.002353
                                                         0.322032       0.164897
                                                         0.930550       0.509235
                                                         2.987378       0.000000
                                                         8.608625       0.000000
                                                        49.270190       0.000000
                          1      12    5dyz              0.045000      -0.001726
                                                         0.113512       0.004075
                                                         0.322032       0.285610
                                                         0.930550       0.882020
                                                         2.987378       0.000000
                                                         8.608625       0.000000
                                                        49.270190       0.000000
                          1      12    5dz2              0.045000      -0.000996
                                                         0.113512       0.002353
                                                         0.322032       0.164897
                                                         0.930550       0.509235
                                                         2.987378       0.000000
                                                         8.608625       0.000000
                                                        49.270190       0.000000

                          1      13    4fx3              0.045000       0.000000
                                                         0.113512       0.000350
                                                         0.322032       0.026408
                                                         0.930550       1.022795
                                                         2.987378       1.277764
                                                         8.608625      -7.108652
                                                        49.270190     240.939937
                          1      13    4fx2y             0.045000       0.000000
                                                         0.113512       0.000782
                                                         0.322032       0.059050
                                                         0.930550       2.287038
                                                         2.987378       2.857166
                                                         8.608625     -15.895429
                                                        49.270190     538.758077
                          1      13    4fx2z             0.045000       0.000000
                                                         0.113512       0.000782
                                                         0.322032       0.059050
                                                         0.930550       2.287038
                                                         2.987378       2.857166
                                                         8.608625     -15.895429
                                                        49.270190     538.758077
                          1      13    4fxy2             0.045000       0.000000
                                                         0.113512       0.000782
                                                         0.322032       0.059050
                                                         0.930550       2.287038
                                                         2.987378       2.857166
                                                         8.608625     -15.895429
                                                        49.270190     538.758077
                          1      13    4fxyz             0.045000       0.000000
                                                         0.113512       0.001354
                                                         0.322032       0.102278
                                                         0.930550       3.961267
                                                         2.987378       4.948757
                                                         8.608625     -27.531691
                                                        49.270190     933.156362
                          1      13    4fxz2             0.045000       0.000000
                                                         0.113512       0.000782
                                                         0.322032       0.059050
                                                         0.930550       2.287038
                                                         2.987378       2.857166
                                                         8.608625     -15.895429
                                                        49.270190     538.758077
                          1      13    4fy3              0.045000       0.000000
                                                         0.113512       0.000350
                                                         0.322032       0.026408
                                                         0.930550       1.022795
                                                         2.987378       1.277764
                                                         8.608625      -7.108652
                                                        49.270190     240.939937
                          1      13    4fy2z             0.045000       0.000000
                                                         0.113512       0.000782
                                                         0.322032       0.059050
                                                         0.930550       2.287038
                                                         2.987378       2.857166
                                                         8.608625     -15.895429
                                                        49.270190     538.758077
                          1      13    4fyz2             0.045000       0.000000
                                                         0.113512       0.000782
                                                         0.322032       0.059050
                                                         0.930550       2.287038
                                                         2.987378       2.857166
                                                         8.608625     -15.895429
                                                        49.270190     538.758077
                          1      13    4fz3              0.045000       0.000000
                                                         0.113512       0.000350
                                                         0.322032       0.026408
                                                         0.930550       1.022795
                                                         2.987378       1.277764
                                                         8.608625      -7.108652
                                                        49.270190     240.939937

                          1      14    5fx3              0.045000       0.000031
                                                         0.113512       0.000543
                                                         0.322032       0.086041
                                                         0.930550       0.419256
                                                         2.987378       0.000000
                                                         8.608625       0.000000
                                                        49.270190       0.000000
                          1      14    5fx2y             0.045000       0.000070
                                                         0.113512       0.001214
                                                         0.322032       0.192393
                                                         0.930550       0.937485
                                                         2.987378       0.000000
                                                         8.608625       0.000000
                                                        49.270190       0.000000
                          1      14    5fx2z             0.045000       0.000070
                                                         0.113512       0.001214
                                                         0.322032       0.192393
                                                         0.930550       0.937485
                                                         2.987378       0.000000
                                                         8.608625       0.000000
                                                        49.270190       0.000000
                          1      14    5fxy2             0.045000       0.000070
                                                         0.113512       0.001214
                                                         0.322032       0.192393
                                                         0.930550       0.937485
                                                         2.987378       0.000000
                                                         8.608625       0.000000
                                                        49.270190       0.000000
                          1      14    5fxyz             0.045000       0.000121
                                                         0.113512       0.002103
                                                         0.322032       0.333234
                                                         0.930550       1.623771
                                                         2.987378       0.000000
                                                         8.608625       0.000000
                                                        49.270190       0.000000
                          1      14    5fxz2             0.045000       0.000070
                                                         0.113512       0.001214
                                                         0.322032       0.192393
                                                         0.930550       0.937485
                                                         2.987378       0.000000
                                                         8.608625       0.000000
                                                        49.270190       0.000000
                          1      14    5fy3              0.045000       0.000031
                                                         0.113512       0.000543
                                                         0.322032       0.086041
                                                         0.930550       0.419256
                                                         2.987378       0.000000
                                                         8.608625       0.000000
                                                        49.270190       0.000000
                          1      14    5fy2z             0.045000       0.000070
                                                         0.113512       0.001214
                                                         0.322032       0.192393
                                                         0.930550       0.937485
                                                         2.987378       0.000000
                                                         8.608625       0.000000
                                                        49.270190       0.000000
                          1      14    5fyz2             0.045000       0.000070
                                                         0.113512       0.001214
                                                         0.322032       0.192393
                                                         0.930550       0.937485
                                                         2.987378       0.000000
                                                         8.608625       0.000000
                                                        49.270190       0.000000
                          1      14    5fz3              0.045000       0.000031
                                                         0.113512       0.000543
                                                         0.322032       0.086041
                                                         0.930550       0.419256
                                                         2.987378       0.000000
                                                         8.608625       0.000000
                                                        49.270190       0.000000

                          1      15    5gx4              0.045000       0.000051
                                                         0.113512       0.002105
                                                         0.322032       0.008605
                                                         0.930550       0.058205
                                                         2.987378       0.000000
                                                         8.608625       0.000000
                                                        49.270190       0.000000
                          1      15    5gx3y             0.045000       0.000134
                                                         0.113512       0.005569
                                                         0.322032       0.022768
                                                         0.930550       0.153995
                                                         2.987378       0.000000
                                                         8.608625       0.000000
                                                        49.270190       0.000000
                          1      15    5gx3z             0.045000       0.000134
                                                         0.113512       0.005569
                                                         0.322032       0.022768
                                                         0.930550       0.153995
                                                         2.987378       0.000000
                                                         8.608625       0.000000
                                                        49.270190       0.000000
                          1      15    5gx2y2            0.045000       0.000173
                                                         0.113512       0.007189
                                                         0.322032       0.029393
                                                         0.930550       0.198807
                                                         2.987378       0.000000
                                                         8.608625       0.000000
                                                        49.270190       0.000000
                          1      15    5gx2yz            0.045000       0.000300
                                                         0.113512       0.012452
                                                         0.322032       0.050910
                                                         0.930550       0.344344
                                                         2.987378       0.000000
                                                         8.608625       0.000000
                                                        49.270190       0.000000
                          1      15    5gx2z2            0.045000       0.000173
                                                         0.113512       0.007189
                                                         0.322032       0.029393
                                                         0.930550       0.198807
                                                         2.987378       0.000000
                                                         8.608625       0.000000
                                                        49.270190       0.000000
                          1      15    5gxy3             0.045000       0.000134
                                                         0.113512       0.005569
                                                         0.322032       0.022768
                                                         0.930550       0.153995
                                                         2.987378       0.000000
                                                         8.608625       0.000000
                                                        49.270190       0.000000
                          1      15    5gxy2z            0.045000       0.000300
                                                         0.113512       0.012452
                                                         0.322032       0.050910
                                                         0.930550       0.344344
                                                         2.987378       0.000000
                                                         8.608625       0.000000
                                                        49.270190       0.000000
                          1      15    5gxyz2            0.045000       0.000300
                                                         0.113512       0.012452
                                                         0.322032       0.050910
                                                         0.930550       0.344344
                                                         2.987378       0.000000
                                                         8.608625       0.000000
                                                        49.270190       0.000000
                          1      15    5gxz3             0.045000       0.000134
                                                         0.113512       0.005569
                                                         0.322032       0.022768
                                                         0.930550       0.153995
                                                         2.987378       0.000000
                                                         8.608625       0.000000
                                                        49.270190       0.000000
                          1      15    5gy4              0.045000       0.000051
                                                         0.113512       0.002105
                                                         0.322032       0.008605
                                                         0.930550       0.058205
                                                         2.987378       0.000000
                                                         8.608625       0.000000
                                                        49.270190       0.000000
                          1      15    5gy3z             0.045000       0.000134
                                                         0.113512       0.005569
                                                         0.322032       0.022768
                                                         0.930550       0.153995
                                                         2.987378       0.000000
                                                         8.608625       0.000000
                                                        49.270190       0.000000
                          1      15    5gy2z2            0.045000       0.000173
                                                         0.113512       0.007189
                                                         0.322032       0.029393
                                                         0.930550       0.198807
                                                         2.987378       0.000000
                                                         8.608625       0.000000
                                                        49.270190       0.000000
                          1      15    5gyz3             0.045000       0.000134
                                                         0.113512       0.005569
                                                         0.322032       0.022768
                                                         0.930550       0.153995
                                                         2.987378       0.000000
                                                         8.608625       0.000000
                                                        49.270190       0.000000
                          1      15    5gz4              0.045000       0.000051
                                                         0.113512       0.002105
                                                         0.322032       0.008605
                                                         0.930550       0.058205
                                                         2.987378       0.000000
                                                         8.608625       0.000000
                                                        49.270190       0.000000

                          2       1    1s            19730.758242       0.654856
                                                      2958.006020       1.769548
                                                       673.387518       2.322723
                                                       190.675174       4.547417
                                                        62.366448       3.527190
                                                        22.833858       5.352733

     RI Auxiliary Basis Set             RI_aug-TZVP-MOLOPT-ae_N_RI_055_s_p_d_f_g

       Number of orbital shell sets:                                          17
       Number of orbital shells:                                              17
       Number of primitive Cartesian functions:                               17
       Number of Cartesian basis functions:                                   69
       Number of spherical basis functions:                                   55
       Norm type:                                                              2

       Normalised Cartesian orbitals:

                        Set   Shell   Orbital            Exponent    Coefficient

                          1       1    1s                0.085278       0.112471

                          2       1    2s                0.280813       0.274931

                          3       1    8px               0.394053       0.445024
                          3       1    8py               0.394053       0.445024
                          3       1    8pz               0.394053       0.445024

                          4       1   15fx3              0.816049       0.931787
                          4       1   15fx2y             0.816049       2.083538
                          4       1   15fx2z             0.816049       2.083538
                          4       1   15fxy2             0.816049       2.083538
                          4       1   15fxyz             0.816049       3.608794
                          4       1   15fxz2             0.816049       2.083538
                          4       1   15fy3              0.816049       0.931787
                          4       1   15fy2z             0.816049       2.083538
                          4       1   15fyz2             0.816049       2.083538
                          4       1   15fz3              0.816049       0.931787

                          5       1    9px               0.832049       1.132730
                          5       1    9py               0.832049       1.132730
                          5       1    9pz               0.832049       1.132730

                          6       1   13dx2              0.840054       1.213242
                          6       1   13dxy              0.840054       2.101396
                          6       1   13dxz              0.840054       2.101396
                          6       1   13dy2              0.840054       1.213242
                          6       1   13dyz              0.840054       2.101396
                          6       1   13dz2              0.840054       1.213242

                          7       1    3s                0.924686       0.672057

                          8       1   17gx4              1.249896       2.055125
                          8       1   17gx3y             1.249896       5.437349
                          8       1   17gx3z             1.249896       5.437349
                          8       1   17gx2y2            1.249896       7.019588
                          8       1   17gx2yz            1.249896      12.158283
                          8       1   17gx2z2            1.249896       7.019588
                          8       1   17gxy3             1.249896       5.437349
                          8       1   17gxy2z            1.249896      12.158283
                          8       1   17gxyz2            1.249896      12.158283
                          8       1   17gxz3             1.249896       5.437349
                          8       1   17gy4              1.249896       2.055125
                          8       1   17gy3z             1.249896       5.437349
                          8       1   17gy2z2            1.249896       7.019588
                          8       1   17gyz3             1.249896       5.437349
                          8       1   17gz4              1.249896       2.055125

                          9       1   16fx3              2.156479       8.296241
                          9       1   16fx2y             2.156479      18.550959
                          9       1   16fx2z             2.156479      18.550959
                          9       1   16fxy2             2.156479      18.550959
                          9       1   16fxyz             2.156479      32.131204
                          9       1   16fxz2             2.156479      18.550959
                          9       1   16fy3              2.156479       8.296241
                          9       1   16fy2z             2.156479      18.550959
                          9       1   16fyz2             2.156479      18.550959
                          9       1   16fz3              2.156479       8.296241

                         10       1   14dx2              2.180604       6.440488
                         10       1   14dxy              2.180604      11.155253
                         10       1   14dxz              2.180604      11.155253
                         10       1   14dy2              2.180604       6.440488
                         10       1   14dyz              2.180604      11.155253
                         10       1   14dz2              2.180604       6.440488

                         11       1   10px               2.373940       4.200271
                         11       1   10py               2.373940       4.200271
                         11       1   10pz               2.373940       4.200271

                         12       1    4s                3.044887       1.642814

                         13       1   11px               7.309528      17.131751
                         13       1   11py               7.309528      17.131751
                         13       1   11pz               7.309528      17.131751

                         14       1    5s               10.026483       4.015795

                         15       1   12px              22.001227      67.920163
                         15       1   12py              22.001227      67.920163
                         15       1   12pz              22.001227      67.920163

                         16       1    6s               33.016147       9.816460

                         17       1    7s              108.718637      23.995958

       Atomic covalent radius [Angstrom]:                                  0.750

       Atomic van der Waals radius [Angstrom]:                             1.550

     The atoms of this atomic kind are PAW atoms (GAPW):
       Hard Gaussian function radius:                                      1.512
       Rho0 radius:                                                        1.512
       Maximum GTO radius used for PAW projector construction:            24.566

     GAPW Soft Basis Set                                 aug-TZVP-MOLOPT-ae_soft

       Number of orbital shell sets:                                           2
       Number of orbital shells:                                              16
       Number of primitive Cartesian functions:                                5
       Number of Cartesian basis functions:                                   71
       Number of spherical basis functions:                                   56
       Norm type:                                                              2

       Normalised Cartesian orbitals:

                        Set   Shell   Orbital            Exponent    Coefficient

                          1       1    1s                0.045000       0.000000
                                                         0.113512       0.014500
                                                         0.322032       0.036074
                                                         0.930550      -0.061635
                                                         2.987378       0.535699

                          1       2    2s                0.045000       0.000000
                                                         0.113512       0.032692
                                                         0.322032       0.082974
                                                         0.930550       0.396674
                                                         2.987378       0.054918

                          1       3    3s                0.045000       0.000000
                                                         0.113512       0.047996
                                                         0.322032       0.306069
                                                         0.930550      -0.408076
                                                         2.987378      -0.229943

                          1       4    4s                0.045000       0.000000
                                                         0.113512       0.171213
                                                         0.322032      -0.186943
                                                         0.930550      -0.188982
                                                         2.987378       0.637930

                          1       5    5s                0.045000       0.096440
                                                         0.113512      -0.064027
                                                         0.322032      -0.041902
                                                         0.930550       0.111692
                                                         2.987378       0.000000

                          1       6    2px               0.045000       0.000000
                                                         0.113512       0.006367
                                                         0.322032       0.040684
                                                         0.930550       0.811118
                                                         2.987378       1.750760
                          1       6    2py               0.045000       0.000000
                                                         0.113512       0.006367
                                                         0.322032       0.040684
                                                         0.930550       0.811118
                                                         2.987378       1.750760
                          1       6    2pz               0.045000       0.000000
                                                         0.113512       0.006367
                                                         0.322032       0.040684
                                                         0.930550       0.811118
                                                         2.987378       1.750760

                          1       7    3px               0.045000       0.000000
                                                         0.113512       0.011134
                                                         0.322032       0.344073
                                                         0.930550      -0.153789
                                                         2.987378      -0.764833
                          1       7    3py               0.045000       0.000000
                                                         0.113512       0.011134
                                                         0.322032       0.344073
                                                         0.930550      -0.153789
                                                         2.987378      -0.764833
                          1       7    3pz               0.045000       0.000000
                                                         0.113512       0.011134
                                                         0.322032       0.344073
                                                         0.930550      -0.153789
                                                         2.987378      -0.764833

                          1       8    4px               0.045000       0.000000
                                                         0.113512       0.104427
                                                         0.322032      -0.047567
                                                         0.930550      -0.121777
                                                         2.987378      -0.049280
                          1       8    4py               0.045000       0.000000
                                                         0.113512       0.104427
                                                         0.322032      -0.047567
                                                         0.930550      -0.121777
                                                         2.987378      -0.049280
                          1       8    4pz               0.045000       0.000000
                                                         0.113512       0.104427
                                                         0.322032      -0.047567
                                                         0.930550      -0.121777
                                                         2.987378      -0.049280

                          1       9    5px               0.045000       0.002493
                                                         0.113512      -0.112828
                                                         0.322032       0.052724
                                                         0.930550       0.295283
                                                         2.987378       0.000000
                          1       9    5py               0.045000       0.002493
                                                         0.113512      -0.112828
                                                         0.322032       0.052724
                                                         0.930550       0.295283
                                                         2.987378       0.000000
                          1       9    5pz               0.045000       0.002493
                                                         0.113512      -0.112828
                                                         0.322032       0.052724
                                                         0.930550       0.295283
                                                         2.987378       0.000000

                          1      10    3dx2              0.045000       0.000000
                                                         0.113512       0.008426
                                                         0.322032       0.004138
                                                         0.930550       0.975526
                                                         2.987378       4.861216
                          1      10    3dxy              0.045000       0.000000
                                                         0.113512       0.014594
                                                         0.322032       0.007167
                                                         0.930550       1.689661
                                                         2.987378       8.419873
                          1      10    3dxz              0.045000       0.000000
                                                         0.113512       0.014594
                                                         0.322032       0.007167
                                                         0.930550       1.689661
                                                         2.987378       8.419873
                          1      10    3dy2              0.045000       0.000000
                                                         0.113512       0.008426
                                                         0.322032       0.004138
                                                         0.930550       0.975526
                                                         2.987378       4.861216
                          1      10    3dyz              0.045000       0.000000
                                                         0.113512       0.014594
                                                         0.322032       0.007167
                                                         0.930550       1.689661
                                                         2.987378       8.419873
                          1      10    3dz2              0.045000       0.000000
                                                         0.113512       0.008426
                                                         0.322032       0.004138
                                                         0.930550       0.975526
                                                         2.987378       4.861216

                          1      11    4dx2              0.045000       0.000000
                                                         0.113512      -0.007657
                                                         0.322032       0.207542
                                                         0.930550       0.469670
                                                         2.987378      -3.348764
                          1      11    4dxy              0.045000       0.000000
                                                         0.113512      -0.013263
                                                         0.322032       0.359472
                                                         0.930550       0.813493
                                                         2.987378      -5.800229
                          1      11    4dxz              0.045000       0.000000
                                                         0.113512      -0.013263
                                                         0.322032       0.359472
                                                         0.930550       0.813493
                                                         2.987378      -5.800229
                          1      11    4dy2              0.045000       0.000000
                                                         0.113512      -0.007657
                                                         0.322032       0.207542
                                                         0.930550       0.469670
                                                         2.987378      -3.348764
                          1      11    4dyz              0.045000       0.000000
                                                         0.113512      -0.013263
                                                         0.322032       0.359472
                                                         0.930550       0.813493
                                                         2.987378      -5.800229
                          1      11    4dz2              0.045000       0.000000
                                                         0.113512      -0.007657
                                                         0.322032       0.207542
                                                         0.930550       0.469670
                                                         2.987378      -3.348764

                          1      12    5dx2              0.045000      -0.000996
                                                         0.113512       0.002353
                                                         0.322032       0.164897
                                                         0.930550       0.509235
                                                         2.987378       0.000000
                          1      12    5dxy              0.045000      -0.001726
                                                         0.113512       0.004075
                                                         0.322032       0.285610
                                                         0.930550       0.882020
                                                         2.987378       0.000000
                          1      12    5dxz              0.045000      -0.001726
                                                         0.113512       0.004075
                                                         0.322032       0.285610
                                                         0.930550       0.882020
                                                         2.987378       0.000000
                          1      12    5dy2              0.045000      -0.000996
                                                         0.113512       0.002353
                                                         0.322032       0.164897
                                                         0.930550       0.509235
                                                         2.987378       0.000000
                          1      12    5dyz              0.045000      -0.001726
                                                         0.113512       0.004075
                                                         0.322032       0.285610
                                                         0.930550       0.882020
                                                         2.987378       0.000000
                          1      12    5dz2              0.045000      -0.000996
                                                         0.113512       0.002353
                                                         0.322032       0.164897
                                                         0.930550       0.509235
                                                         2.987378       0.000000

                          1      13    4fx3              0.045000       0.000000
                                                         0.113512       0.000350
                                                         0.322032       0.026408
                                                         0.930550       1.022795
                                                         2.987378       1.277764
                          1      13    4fx2y             0.045000       0.000000
                                                         0.113512       0.000782
                                                         0.322032       0.059050
                                                         0.930550       2.287038
                                                         2.987378       2.857166
                          1      13    4fx2z             0.045000       0.000000
                                                         0.113512       0.000782
                                                         0.322032       0.059050
                                                         0.930550       2.287038
                                                         2.987378       2.857166
                          1      13    4fxy2             0.045000       0.000000
                                                         0.113512       0.000782
                                                         0.322032       0.059050
                                                         0.930550       2.287038
                                                         2.987378       2.857166
                          1      13    4fxyz             0.045000       0.000000
                                                         0.113512       0.001354
                                                         0.322032       0.102278
                                                         0.930550       3.961267
                                                         2.987378       4.948757
                          1      13    4fxz2             0.045000       0.000000
[...]
 *    |                      full ABBA matrix is ill-defined.                  *
 *  O/|                                                                        *
 * /| |                                                                        *
 *                                  *
 * / \                                                     bse_full_diag.F:392 *
 *******************************************************************************


 ===== Routine Calling Stack ===== 

            8 create_hermitian_form_of_ABBA
            7 start_bse_calculation
            6 rpa_num_int
            5 rpa_ri_compute_en
            4 mp2_gpw_main
            3 mp2_main
            2 qs_energies
            1 CP2K

 *******************************************************************************
 *   ___                                                                       *
 *  /   \                                                                      *
 * [ABORT]                                                                     *
 *  \___/  Matrix (A-B) is not positive definite. Hermitian diagonalization of *
 *    |                      full ABBA matrix is ill-defined.                  *
 *  O/|                                                                        *
 * /| |                                                                        *
 *
 *******************************************************************************
 *   ___                                                                       *
 *  /   \                                                                      *
 * [ABORT]                                                                     *
 *  \___/  Matrix (A-B) is not positive definite. Hermitian diagonalization of *
 *    |                      full ABBA matrix is ill-defined.                  *
 *  O/|                                                                        *
 **
 *    |                      full ABBA matrix is ill-defined.                  *
 *  O/|                                                                        *
 * /| |                                                                        *
 * / \                                                     bse_full_diag.F:392 *
 *******************************************************************************


 ===== Routine Calling Stack ===== 

            8 create_hermitian_form_of_ABBA
            7 start_bse_calculation
            6 rpa_num_int
            5 rpa_ri_compute_en
            4 mp2_gpw_main
            3 mp2_main
            2 qs_energies
            1 CP2K

 *******************************************************************************
 *   ___                                                                       *
 *  /   \                                                                      *
 * [ABORT]                                                                     *
 *  \___/  Matrix (A-B) is not positive definite. Hermitian diagonalization of *
 *    |                      full ABBA matrix is ill-defined.                  *
 *  O/|                                                                        *
 * /| |                                                                        *
 * / \                                                     bse_full_diag.F:392 *
                                  *
 * / \                                                     bse_full_diag.F:392 *
 *******************************************************************************


 ===== Routine Calling Stack ===== 

            8 create_hermitian_form_of_ABBA
            7 start_bse_calculation
            6 rpa_num_int
            5 rpa_ri_compute_en
            4 mp2_gpw_main
            3 mp2_main
 *******************************************************************************


 ===== Routine Calling Stack ===== 

            8 create_hermitian_form_of_ABBA
            7 start_bse_calculation
            6 rpa_num_int
            5 rpa_ri_compute_en
            4 mp2_gpw_main
            3 mp2_main
            2 qs_energies
            3 mp2_main
            2 qs_energies
            1 CP2K
*
 * / \                                                     bse_full_diag.F:392 *
 *******************************************************************************


 ===== Routine Calling Stack ===== 

            8 create_hermitian_form_of_ABBA
            7 start_bse_calculation
            6 rpa_num_int
            5 rpa_ri_compute_en
            4 mp2_gpw_main
            3 mp2_main
            2 qs_energies
            1 CP2K

 ===== Routine Calling Stack ===== 

            8 create_hermitian_form_of_ABBA
            7 start_bse_calculation
            6 rpa_num_int
            5 rpa_ri_compute_en
            4 mp2_gpw_main
            3 mp2_main
            2 qs_energies
            1 CP2K
 *******************************************************************************


 ===== Routine Calling Stack ===== 

            8 create_hermitian_form_of_ABBA
            7 start_bse_calculation
            6 rpa_num_int
            5 rpa_ri_compute_en
            4 mp2_gpw_main
            3 mp2_main
            2 qs_energies
            1 CP2K
 / \                                                     bse_full_diag.F:392 *
 *******************************************************************************


 ===== Routine Calling Stack ===== 

            8 create_hermitian_form_of_ABBA
            7 start_bse_calculation
            6 rpa_num_int
            5 rpa_ri_compute_en
            4 mp2_gpw_main
            3 mp2_main
            2 qs_energies
            1 CP2K
 / \                                                     bse_full_diag.F:392 *
 *******************************************************************************


 ===== Routine Calling Stack ===== 

            8 create_hermitian_form_of_ABBA
            7 start_bse_calculation
            6 rpa_num_int
            5 rpa_ri_compute_en
            4 mp2_gpw_main
            3 mp2_main
            2 qs_energies
            1 CP2K
 /| |                                                                        *
 * / \                                                     bse_full_diag.F:392 *
 *******************************************************************************


 ===== Routine Calling Stack ===== 

            8 create_hermitian_form_of_ABBA


 ===== Routine Calling Stack ===== 

            8 create_hermitian_form_of_ABBA
            7 start_bse_calculation
            6 rpa_num_int
            5 rpa_ri_compute_en
            4 mp2_gpw_main
            3 mp2_main
            2 qs_energies
            1 CP2K
            2 qs_energies
            1 CP2K
            1 CP2K
            7 start_bse_calculation
            6 rpa_num_int
            5 rpa_ri_compute_en
            4 mp2_gpw_main
            3 mp2_main
            2 qs_energies
            1 CP2K

 *******************************************************************************
 *   ___                                                                       *
 *  /   \                                                                      *
 * [ABORT]                                                                     *
 *  \___/  Matrix (A-B) is not positive definite. Hermitian diagonalization of *
 *    |                      full ABBA matrix is ill-defined.                  *

 *******************************************************************************
 *   ___                                                                       *
 *  /   \                                                                      *
 * [ABORT]                                                                     *
 *  \___/  Matrix (A-B) is not positive definite. Hermitian diagonalization of *
 *    |                      full ABBA matrix is ill-defined.                  *
 *  O/|                                                                        *
 * /| |                                                                        *
 * / \                                                     bse_full_diag.F:392 *
 *******************************************************************************


 ===== Routine Calling Stack ===== 

            8 create_hermitian_form_of_ABBA
            7 start_bse_calculation
            6 rpa_num_int
            5 rpa_ri_compute_en
            4 mp2_gpw_main

 *******************************************************************************
 *   ___                                                                       *
 *  /   \                                                                      *
 * [ABORT]                                                                     *
 *  \___/  Matrix (A-B) is not positive definite. Hermitian diagonalization of *
 *    |                      full ABBA matrix is ill-defined.                  *
 *  O/|                                                                        *
 * /| |                                                                        *
 * / \                                                     bse_full_diag.F:392 *
 *******************************************************************************


 ===== Routine Calling Stack ===== 

            8 create_hermitian_form_of_ABBA
            7 start_bse_calculation
            6 rpa_num_int
            5 rpa_ri_compute_en
            4 mp2_gpw_main
            3 mp2_main
            2 qs_energies
            1 CP2K

 *******************************************************************************
 *   ___                                                                       *
 *  /   \                                                                      *
 * [ABORT]                                                                     *
 *  \___/  Matrix (A-B) is not positive definite. Hermitian diagonalization of *
 *    |                      full ABBA matrix is ill-defined.                  *
 *  O/|                                                                        *
 * /| |                                                                        *
 * / \                                                     bse_full_diag.F:392 *
 *******************************************************************************


 ===== Routine Calling Stack ===== 

            8 create_hermitian_form_of_ABBA
            7 start_bse_calculation
            6 rpa_num_int
            5 rpa_ri_compute_en
            4 mp2_gpw_main
            3 mp2_main
            2 qs_energies
            1 CP2K

 *******************************************************************************
 *   ___                                                                       *
 *  /   \                                                                      *
 * [ABORT]                                                                     *
 *  \___/  Matrix (A-B) is not positive definite. Hermitian diagonalization of *
 *    |                      full ABBA matrix is ill-defined.                  *
 *  O/|                                                                        *
 * /| |                                                                        *
 * / \                                                     bse_full_diag.F:392 *
 *******************************************************************************


 ===== Routine Calling Stack ===== 

            8 create_hermitian_form_of_ABBA
            7 start_bse_calculation
            6 rpa_num_int
            5 rpa_ri_compute_en
            4 mp2_gpw_main
            3 mp2_main

 *******************************************************************************
 *   ___                                                                       *
 *  /   \                                                                      *
 * [ABORT]                                                                     *
 *  \___/  Matrix (A-B) is not positive definite. Hermitian diagonalization of *
 *    |                      full ABBA matrix is ill-defined.                  *
 *  O/|                                                                        *
 * /| |                                                                        *
 * / \                                                     bse_full_diag.F:392 *
 *******************************************************************************


 ===== Routine Calling Stack ===== 

            8 create_hermitian_form_of_ABBA
            7 start_bse_calculation
            6 rpa_num_int
            5 rpa_ri_compute_en
            4 mp2_gpw_main
            3 mp2_main
            2 qs_energies
            1 CP2K

 *******************************************************************************
 *   ___                                                                       *
 *  /   \                                                                      *
 * [ABORT]                                                                     *
 *  \___/  Matrix (A-B) is not positive definite. Hermitian diagonalization of *
 *    |                      full ABBA matrix is ill-defined.                  *
 *  O/|                                                                        *
 * /| |                                                                        *
 * / \                                                     bse_full_diag.F:392 *
 *******************************************************************************


 ===== Routine Calling Stack ===== 

            8 create_hermitian_form_of_ABBA
            7 start_bse_calculation
            6 rpa_num_int
            5 rpa_ri_compute_en
            4 mp2_gpw_main
            3 mp2_main
            2 qs_energies
            1 CP2K

 *******************************************************************************
 *   ___                                                                       *
 *  /   \                                                                      *
 * [ABORT]                                                                     *
 *  \___/  Matrix (A-B) is not positive definite. Hermitian diagonalization of *
 *    |                      full ABBA matrix is ill-defined.                  *
 *  O/|                                                                        *
 * /| |                                                                        *
 * / \                                                     bse_full_diag.F:392 *
 *******************************************************************************


 ===== Routine Calling Stack ===== 

            8 create_hermitian_form_of_ABBA
            7 start_bse_calculation

 *******************************************************************************
 *   ___                                                                       *
 *  /   \                                                                      *
 * [ABORT]                                                                     *
 *  \___/  Matrix (A-B) is not positive definite. Hermitian diagonalization of *
 *    |                      full ABBA matrix is ill-defined.                  *
 *  O/|                                                                        *
 * /| |                                                                        *
 * / \                                                     bse_full_diag.F:392 *
 *******************************************************************************


 ===== Routine Calling Stack ===== 

            8 create_hermitian_form_of_ABBA
            7 start_bse_calculation
            6 rpa_num_int
            5 rpa_ri_compute_en
            4 mp2_gpw_main
            3 mp2_main
            2 qs_energies
            1 CP2K

 *******************************************************************************
 *   ___                                                                       *
 *  /   \                                                                      *
 * [ABORT]                                                                     *
 *  \___/  Matrix (A-B) is not positive definite. Hermitian diagonalization of *
 *    |                      full ABBA matrix is ill-defined.                  *
 *  O/|                                                                        *
 * /| |                                                                        *
 * / \                                                     bse_full_diag.F:392 *
 *******************************************************************************


 ===== Routine Calling Stack ===== 

            8 create_hermitian_form_of_ABBA
            7 start_bse_calculation
            6 rpa_num_int
            5 rpa_ri_compute_en
            4 mp2_gpw_main
            3 mp2_main
            2 qs_energies
            1 CP2K

 *******************************************************************************
 *   ___                                                                       *
 *  /   \                                                                      *
 * [ABORT]                                                                     *
 *  \___/  Matrix (A-B) is not positive definite. Hermitian diagonalization of *
 *    |                      full ABBA matrix is ill-defined.                  *
 *  O/|                                                                        *
 * /| |                                                                        *
 * / \                                                     bse_full_diag.F:392 *
 *******************************************************************************


 ===== Routine Calling Stack ===== 

            8 create_hermitian_form_of_ABBA
            7 start_bse_calculation
            6 rpa_num_int
            5 rpa_ri_compute_en
            4 mp2_gpw_main
            3 mp2_main
            2 qs_energies
            1 CP2K

 *******************************************************************************
 *   ___                                                                       *
 *  /   \                                                                      *
 * [ABORT]                                                                     *
 *  \___/  Matrix (A-B) is not positive definite. Hermitian diagonalization of *
 *    |                      full ABBA matrix is ill-defined.                  *
 *  O/|                                                                        *
 * /| |                                                                        *
 * / \                                                     bse_full_diag.F:392 *
 *******************************************************************************


 ===== Routine Calling Stack ===== 

            8 create_hermitian_form_of_ABBA
            7 start_bse_calculation
            6 rpa_num_int
            5 rpa_ri_compute_en
            4 mp2_gpw_main
            3 mp2_main
            2 qs_energies
            1 CP2K
 *  O/|                                                                        *
 * /| |                                                                        *
 * / \                                                     bse_full_diag.F:392 *
 *******************************************************************************


 ===== Routine Calling Stack ===== 

            8 create_hermitian_form_of_ABBA
            7 start_bse_calculation
            6 rpa_num_int
            5 rpa_ri_compute_en
            4 mp2_gpw_main
            3 mp2_main
            2 qs_energies
            1 CP2K
            3 mp2_main
            2 qs_energies
            1 CP2K
            2 qs_energies
            1 CP2K
            6 rpa_num_int
            5 rpa_ri_compute_en
            4 mp2_gpw_main
            3 mp2_main
            2 qs_energies
            1 CP2K
