 DBCSR| CPU Multiplication driver                                           BLAS (U)
 DBCSR| Multrec recursion limit                                              512 (U)
 DBCSR| Multiplication stack size                                           1000 (D)
 DBCSR| Maximum elements for images                                    UNLIMITED (U)
 DBCSR| Multiplicative factor virtual images                                   1 (U)
 DBCSR| Use multiplication densification                                       T (D)
 DBCSR| Multiplication size stacks                                             3 (U)
 DBCSR| Use memory pool for CPU allocation                                     F (U)
 DBCSR| Number of 3D layers                                               SINGLE (U)
 DBCSR| Use MPI memory allocation                                              F (U)
 DBCSR| Use RMA algorithm                                                      F (U)
 DBCSR| Use Communication thread                                               T (U)
 DBCSR| Communication thread load                                             75 (D)
 DBCSR| MPI: My process id                                                     0
 DBCSR| MPI: Number of processes                                              24
 DBCSR| OMP: Current number of threads                                         4
 DBCSR| OMP: Max number of threads                                             4
 DBCSR| Split modifier for TAS multiplication algorithm                  1.0E+00 (U)


  **** **** ******  **  PROGRAM STARTED AT               2025-03-16 14:55:11.655
 ***** ** ***  *** **   PROGRAM STARTED ON                          i02r10c04s09
 **    ****   ******    PROGRAM STARTED BY                               di38fab
 ***** **    ** ** **   PROGRAM PROCESS ID                               1495924
  **** **  *******  **  PROGRAM STARTED IN /hppfs/scratch/04/di38fab/05_MOL/W4-1
                                           1+ALK/o2/DZVP/GW+BSE/Np1

 CP2K| version string:                 CP2K version 2025.1 (Development Version)
 CP2K| source code revision number:                                  git:d2e611a
 CP2K| cp2kflags: omp libint fftw3 libxc parallel scalapack max_contr=4         
 CP2K| is freely available from                            https://www.cp2k.org/
 CP2K| Program compiled at                       Thu 06 Mar 2025 05:09:20 PM CET
 CP2K| Program compiled on                                               login02
 CP2K| Program compiled for                                        Supermuc-foss
 CP2K| Data directory path                  /hppfs/work/pn36zo/di38fab/cp2k/data
 CP2K| Input file name                                                    GW.inp

 GLOBAL| Force Environment number                                              1
 GLOBAL| Basis set file name            /hppfs/scratch/04/di38fab/04_TMD/BASIS_A
 GLOBAL| Potential file name            /hppfs/work/pn36zo/di38fab/cp2k/data/ALL
 GLOBAL| MM Potential file name                                     MM_POTENTIAL
 GLOBAL| Coordinate file name                                      __STD_INPUT__
 GLOBAL| Method name                                                        CP2K
 GLOBAL| Project name                                                       MoS2
 GLOBAL| Run type                                                         ENERGY
 GLOBAL| FFT library                                                       FFTW3
 GLOBAL| Diagonalization library                                       ScaLAPACK
 GLOBAL| DGEMM library                                                      BLAS
 GLOBAL| Orthonormality check for eigenvectors                          DISABLED
 GLOBAL| Matrix multiplication library                                 ScaLAPACK
 GLOBAL| All-to-all communication in single precision                          F
 GLOBAL| FFTs using library dependent lengths                                  F
 GLOBAL| Grid backend                                                       AUTO
 GLOBAL| Global print level                                               MEDIUM
 GLOBAL| MPI I/O enabled                                                       T
 GLOBAL| Total number of message passing processes                            24
 GLOBAL| Number of threads for this process                                    4
 GLOBAL| This output is from process                                           0
 GLOBAL| OpenMP stack size per thread (OMP_STACKSIZE)                    default
 GLOBAL| CPU model name             Intel(R) Xeon(R) Platinum 8174 CPU @ 3.10GHz

 MEMORY| system memory details [Kb]
 MEMORY|                        rank 0           min           max       average
 MEMORY| MemTotal             98436660      98436660      98436664      98436662
 MEMORY| MemFree              83737376      83737376      83855940      83796658
 MEMORY| Buffers                     0             0             0             0
 MEMORY| Cached                2479628       2399000       2479628       2439314
 MEMORY| Slab                  1236952       1225208       1236952       1231080
 MEMORY| SReclaimable           279352        264452        279352        271902
 MEMORY| MemLikelyFree        86496356      86496356      86519392      86507874


 *** Fundamental physical constants (SI units) ***

 *** Literature: B. J. Mohr and B. N. Taylor,
 ***             CODATA recommended values of the fundamental physical
 ***             constants: 2006, Web Version 5.1
 ***             http://physics.nist.gov/constants

 Speed of light in vacuum [m/s]                             2.99792458000000E+08
 Magnetic constant or permeability of vacuum [N/A**2]       1.25663706143592E-06
 Electric constant or permittivity of vacuum [F/m]          8.85418781762039E-12
 Planck constant (h) [J*s]                                  6.62606896000000E-34
 Planck constant (h-bar) [J*s]                              1.05457162825177E-34
 Elementary charge [C]                                      1.60217648700000E-19
 Electron mass [kg]                                         9.10938215000000E-31
 Electron g factor [ ]                                     -2.00231930436220E+00
 Proton mass [kg]                                           1.67262163700000E-27
 Fine-structure constant                                    7.29735253760000E-03
 Rydberg constant [1/m]                                     1.09737315685270E+07
 Avogadro constant [1/mol]                                  6.02214179000000E+23
 Boltzmann constant [J/K]                                   1.38065040000000E-23
 Atomic mass unit [kg]                                      1.66053878200000E-27
 Bohr radius [m]                                            5.29177208590000E-11

 *** Conversion factors ***

 [u] -> [a.u.]                                              1.82288848426455E+03
 [Angstrom] -> [Bohr] = [a.u.]                              1.88972613288564E+00
 [a.u.] = [Bohr] -> [Angstrom]                              5.29177208590000E-01
 [a.u.] -> [s]                                              2.41888432650478E-17
 [a.u.] -> [fs]                                             2.41888432650478E-02
 [a.u.] -> [J]                                              4.35974393937059E-18
 [a.u.] -> [N]                                              8.23872205491840E-08
 [a.u.] -> [K]                                              3.15774647902944E+05
 [a.u.] -> [kJ/mol]                                         2.62549961709828E+03
 [a.u.] -> [kcal/mol]                                       6.27509468713739E+02
 [a.u.] -> [Pa]                                             2.94210107994716E+13
 [a.u.] -> [bar]                                            2.94210107994716E+08
 [a.u.] -> [atm]                                            2.90362800883016E+08
 [a.u.] -> [eV]                                             2.72113838565563E+01
 [a.u.] -> [Hz]                                             6.57968392072181E+15
 [a.u.] -> [1/cm] (wave numbers)                            2.19474631370540E+05
 [a.u./Bohr**2] -> [1/cm]                                   5.14048714338585E+03
 

 CELL_TOP| Volume [angstrom^3]:                                     27000.000000
 CELL_TOP| Vector a [angstrom    30.000     0.000     0.000   |a| =    30.000000
 CELL_TOP| Vector b [angstrom     0.000    30.000     0.000   |b| =    30.000000
 CELL_TOP| Vector c [angstrom     0.000     0.000    30.000   |c| =    30.000000
 CELL_TOP| Angle (b,c), alpha [degree]:                                90.000000
 CELL_TOP| Angle (a,c), beta  [degree]:                                90.000000
 CELL_TOP| Angle (a,b), gamma [degree]:                                90.000000
 CELL_TOP| Numerically orthorhombic:                                         YES
 CELL_TOP| Periodicity                                                      NONE

 GENERATE|  Preliminary Number of Bonds generated:                             0
 GENERATE|  Achieved consistency in connectivity generation.

 CELL| Volume [angstrom^3]:                                         27000.000000
 CELL| Vector a [angstrom]:      30.000     0.000     0.000   |a| =    30.000000
 CELL| Vector b [angstrom]:       0.000    30.000     0.000   |b| =    30.000000
 CELL| Vector c [angstrom]:       0.000     0.000    30.000   |c| =    30.000000
 CELL| Angle (b,c), alpha [degree]:                                    90.000000
 CELL| Angle (a,c), beta  [degree]:                                    90.000000
 CELL| Angle (a,b), gamma [degree]:                                    90.000000
 CELL| Numerically orthorhombic:                                             YES
 CELL| Periodicity                                                          NONE

 CELL_REF| Volume [angstrom^3]:                                     27000.000000
 CELL_REF| Vector a [angstrom    30.000     0.000     0.000   |a| =    30.000000
 CELL_REF| Vector b [angstrom     0.000    30.000     0.000   |b| =    30.000000
 CELL_REF| Vector c [angstrom     0.000     0.000    30.000   |c| =    30.000000
 CELL_REF| Angle (b,c), alpha [degree]:                                90.000000
 CELL_REF| Angle (a,c), beta  [degree]:                                90.000000
 CELL_REF| Angle (a,b), gamma [degree]:                                90.000000
 CELL_REF| Numerically orthorhombic:                                         YES
 CELL_REF| Periodicity                                                      NONE

 *******************************************************************************
 *******************************************************************************
 **                                                                           **
 **     #####                         ##              ##                      **
 **    ##   ##            ##          ##              ##                      **
 **   ##     ##                       ##            ######                    **
 **   ##     ##  ##   ##  ##   #####  ##  ##   ####   ##    #####    #####    **
 **   ##     ##  ##   ##  ##  ##      ## ##   ##      ##   ##   ##  ##   ##   **
 **   ##  ## ##  ##   ##  ##  ##      ####     ###    ##   ######   ######    **
 **    ##  ###   ##   ##  ##  ##      ## ##      ##   ##   ##       ##        **
 **     #######   #####   ##   #####  ##  ##  ####    ##    #####   ##        **
 **           ##                                                    ##        **
 **                                                                           **
 **                                                ... make the atoms dance   **
 **                                                                           **
 **            Copyright (C) by CP2K developers group (2000-2025)             **
 **                      J. Chem. Phys. 152, 194103 (2020)                    **
 **                                                                           **
 *******************************************************************************

 DFT| Spin restricted Kohn-Sham (RKS) calculation                            RKS
 DFT| Multiplicity                                                             1
 DFT| Number of spin states                                                    1
 DFT| Charge                                                                   0
 DFT| Self-interaction correction (SIC)                                       NO
 DFT| Cutoffs: density                                              1.000000E-10
 DFT|          gradient                                             1.000000E-10
 DFT|          tau                                                  1.000000E-10
 DFT|          cutoff_smoothing_range                               0.000000E+00
 DFT| XC density smoothing                                                  NONE
 DFT| XC derivatives                                                          PW

 FUNCTIONAL| PBE:
 FUNCTIONAL| J.P.Perdew, K.Burke, M.Ernzerhof, Phys. Rev. Letter, vol. 77, n 18,
 FUNCTIONAL|  pp. 3865-3868, (1996)sx=0.750sc=1.000{spin unpolarized}           


 QS| Method:                                                                GAPW
 QS| Density plane wave grid type                        NON-SPHERICAL FULLSPACE
 QS| Number of grid levels:                                                    4
 QS| Density cutoff [a.u.]:                                                250.0
 QS| Multi grid cutoff [a.u.]: 1) grid level                               250.0
 QS|                           2) grid level                                83.3
 QS|                           3) grid level                                27.8
 QS|                           4) grid level                                 9.3
 QS| Grid level progression factor:                                          3.0
 QS| Relative density cutoff [a.u.]:                                        50.0
 QS| Interaction thresholds: eps_pgf_orb:                                1.0E-12
 QS|                         eps_filter_matrix:                          0.0E+00
 QS|                         eps_core_charge:                            1.0E-14
 QS|                         eps_rho_gspace:                             1.0E-12
 QS|                         eps_rho_rspace:                             1.0E-12
 QS|                         eps_gvg_rspace:                             1.0E-06
 QS|                         eps_ppl:                                    1.0E-02
 QS|                         eps_ppnl:                                   1.0E-08
 QS| GAPW|      One center basis from orbital basis primitives
 QS| GAPW|                   eps_fit:                                    1.0E-04
 QS| GAPW|                   eps_iso:                                    1.0E-12
 QS| GAPW|                   eps_svd:                                    1.0E-08
 QS| GAPW|                   eps_cpc:                                    1.0E-12
 QS| GAPW|   atom-r-grid: quadrature:                                     GC_LOG
 QS| GAPW|      atom-s-grid:  max l :                                          6
 QS| GAPW|      max_l_rho0 :                                                   2


 ATOMIC KIND INFORMATION

  1. Atomic kind: O                                     Number of atoms:       2

     Orbital Basis Set                                        aug-DZVP-MOLOPT-ae

       Number of orbital shell sets:                                           2
       Number of orbital shells:                                              10
       Number of primitive Cartesian functions:                               12
       Number of Cartesian basis functions:                                   35
       Number of spherical basis functions:                                   30
       Norm type:                                                              2

       Normalised Cartesian orbitals:

                        Set   Shell   Orbital            Exponent    Coefficient

                          1       1    2s                0.090000       0.120905
                                                         0.191936      -0.019521
                                                         0.750068       0.059582
                                                         2.907977       0.000000
                                                        16.368686       0.000000

                          1       2    3px               0.090000       0.000000
                                                         0.191936       0.023686
                                                         0.750068       0.626550
                                                         2.907977       2.082711
                                                        16.368686       3.596544
                          1       2    3py               0.090000       0.000000
                                                         0.191936       0.023686
                                                         0.750068       0.626550
                                                         2.907977       2.082711
                                                        16.368686       3.596544
                          1       2    3pz               0.090000       0.000000
                                                         0.191936       0.023686
                                                         0.750068       0.626550
                                                         2.907977       2.082711
                                                        16.368686       3.596544

                          1       3    4px               0.090000       0.000000
                                                         0.191936       0.196557
                                                         0.750068      -0.157257
                                                         2.907977      -0.566756
                                                        16.368686      -1.323495
                          1       3    4py               0.090000       0.000000
                                                         0.191936       0.196557
                                                         0.750068      -0.157257
                                                         2.907977      -0.566756
                                                        16.368686      -1.323495
                          1       3    4pz               0.090000       0.000000
                                                         0.191936       0.196557
                                                         0.750068      -0.157257
                                                         2.907977      -0.566756
                                                        16.368686      -1.323495

                          1       4    5px               0.090000       0.020606
                                                         0.191936       0.124186
                                                         0.750068       0.098287
                                                         2.907977       0.000000
                                                        16.368686       0.000000
                          1       4    5py               0.090000       0.020606
                                                         0.191936       0.124186
                                                         0.750068       0.098287
                                                         2.907977       0.000000
                                                        16.368686       0.000000
                          1       4    5pz               0.090000       0.020606
                                                         0.191936       0.124186
                                                         0.750068       0.098287
                                                         2.907977       0.000000
                                                        16.368686       0.000000

                          1       5    4dx2              0.090000       0.000000
                                                         0.191936       0.030414
                                                         0.750068       0.724129
                                                         2.907977       1.586204
                                                        16.368686       1.487256
                          1       5    4dxy              0.090000       0.000000
                                                         0.191936       0.052678
                                                         0.750068       1.254227
                                                         2.907977       2.747386
                                                        16.368686       2.576002
                          1       5    4dxz              0.090000       0.000000
                                                         0.191936       0.052678
                                                         0.750068       1.254227
                                                         2.907977       2.747386
                                                        16.368686       2.576002
                          1       5    4dy2              0.090000       0.000000
                                                         0.191936       0.030414
                                                         0.750068       0.724129
                                                         2.907977       1.586204
                                                        16.368686       1.487256
                          1       5    4dyz              0.090000       0.000000
                                                         0.191936       0.052678
                                                         0.750068       1.254227
                                                         2.907977       2.747386
                                                        16.368686       2.576002
                          1       5    4dz2              0.090000       0.000000
                                                         0.191936       0.030414
                                                         0.750068       0.724129
                                                         2.907977       1.586204
                                                        16.368686       1.487256

                          1       6    5dx2              0.090000      -0.010181
                                                         0.191936       0.018957
                                                         0.750068       0.933882
                                                         2.907977       0.008471
                                                        16.368686       0.000000
                          1       6    5dxy              0.090000      -0.017634
                                                         0.191936       0.032834
                                                         0.750068       1.617531
                                                         2.907977       0.014671
                                                        16.368686       0.000000
                          1       6    5dxz              0.090000      -0.017634
                                                         0.191936       0.032834
                                                         0.750068       1.617531
                                                         2.907977       0.014671
                                                        16.368686       0.000000
                          1       6    5dy2              0.090000      -0.010181
                                                         0.191936       0.018957
                                                         0.750068       0.933882
                                                         2.907977       0.008471
                                                        16.368686       0.000000
                          1       6    5dyz              0.090000      -0.017634
                                                         0.191936       0.032834
                                                         0.750068       1.617531
                                                         2.907977       0.014671
                                                        16.368686       0.000000
                          1       6    5dz2              0.090000      -0.010181
                                                         0.191936       0.018957
                                                         0.750068       0.933882
                                                         2.907977       0.008471
                                                        16.368686       0.000000

                          1       7    5fx3              0.090000       0.003073
                                                         0.191936       0.017866
                                                         0.750068       0.208981
                                                         2.907977      -1.809714
                                                        16.368686       0.000000
                          1       7    5fx2y             0.090000       0.006871
                                                         0.191936       0.039950
                                                         0.750068       0.467295
                                                         2.907977      -4.046643
                                                        16.368686       0.000000
                          1       7    5fx2z             0.090000       0.006871
                                                         0.191936       0.039950
                                                         0.750068       0.467295
                                                         2.907977      -4.046643
                                                        16.368686       0.000000
                          1       7    5fxy2             0.090000       0.006871
                                                         0.191936       0.039950
                                                         0.750068       0.467295
                                                         2.907977      -4.046643
                                                        16.368686       0.000000
                          1       7    5fxyz             0.090000       0.011901
                                                         0.191936       0.069196
                                                         0.750068       0.809378
                                                         2.907977      -7.008992
                                                        16.368686       0.000000
                          1       7    5fxz2             0.090000       0.006871
                                                         0.191936       0.039950
                                                         0.750068       0.467295
                                                         2.907977      -4.046643
                                                        16.368686       0.000000
                          1       7    5fy3              0.090000       0.003073
                                                         0.191936       0.017866
                                                         0.750068       0.208981
                                                         2.907977      -1.809714
                                                        16.368686       0.000000
                          1       7    5fy2z             0.090000       0.006871
                                                         0.191936       0.039950
                                                         0.750068       0.467295
                                                         2.907977      -4.046643
                                                        16.368686       0.000000
                          1       7    5fyz2             0.090000       0.006871
                                                         0.191936       0.039950
                                                         0.750068       0.467295
                                                         2.907977      -4.046643
                                                        16.368686       0.000000
                          1       7    5fz3              0.090000       0.003073
                                                         0.191936       0.017866
                                                         0.750068       0.208981
                                                         2.907977      -1.809714
                                                        16.368686       0.000000

                          2       1    1s                0.293338      -0.001581
                                                         0.941883       0.076823
                                                         5.946538      -1.128731
                                                        19.692604      -3.542509
                                                        76.928143      -3.538410
                                                       340.903325      -2.616043
                                                      2266.118827      -1.088852

                          2       2    2s                0.293338       0.124568
                                                         0.941883       0.386056
                                                         5.946538       0.132815
                                                        19.692604       0.350657
                                                        76.928143       1.294240
                                                       340.903325      -0.343055
                                                      2266.118827       0.730749

                          2       3    3s                0.293338       0.411906
                                                         0.941883      -0.735854
                                                         5.946538      -0.324434
                                                        19.692604      -0.580898
                                                        76.928143      -3.484318
                                                       340.903325       2.878168
                                                      2266.118827      -6.417666

     RI Auxiliary Basis Set             RI_aug-DZVP-MOLOPT-ae_N_RI_053_s_p_d_f_g

       Number of orbital shell sets:                                          17
       Number of orbital shells:                                              17
       Number of primitive Cartesian functions:                               17
       Number of Cartesian basis functions:                                   65
       Number of spherical basis functions:                                   53
       Norm type:                                                              2

       Normalised Cartesian orbitals:

                        Set   Shell   Orbital            Exponent    Coefficient

                          1       1    1s                0.371815       0.339356

                          2       1   13dx2              0.466494       0.433402
                          2       1   13dxy              0.466494       0.750674
                          2       1   13dxz              0.466494       0.750674
                          2       1   13dy2              0.466494       0.433402
                          2       1   13dyz              0.466494       0.750674
                          2       1   13dz2              0.466494       0.433402

                          3       1    8px               0.582473       0.725328
                          3       1    8py               0.582473       0.725328
                          3       1    8pz               0.582473       0.725328

                          4       1   17gx4              0.619225       0.297864
                          4       1   17gx3y             0.619225       0.788074
                          4       1   17gx3z             0.619225       0.788074
                          4       1   17gx2y2            0.619225       1.017400
                          4       1   17gx2yz            0.619225       1.762188
                          4       1   17gx2z2            0.619225       1.017400
                          4       1   17gxy3             0.619225       0.788074
                          4       1   17gxy2z            0.619225       1.762188
                          4       1   17gxyz2            0.619225       1.762188
                          4       1   17gxz3             0.619225       0.788074
                          4       1   17gy4              0.619225       0.297864
                          4       1   17gy3z             0.619225       0.788074
                          4       1   17gy2z2            0.619225       1.017400
                          4       1   17gyz3             0.619225       0.788074
                          4       1   17gz4              0.619225       0.297864

                          5       1    2s                0.667407       0.526263

                          6       1    9px               0.893629       1.238474
                          6       1    9py               0.893629       1.238474
                          6       1    9pz               0.893629       1.238474

                          7       1   14dx2              1.388982       2.925018
                          7       1   14dxy              1.388982       5.066280
                          7       1   14dxz              1.388982       5.066280
                          7       1   14dy2              1.388982       2.925018
                          7       1   14dyz              1.388982       5.066280
                          7       1   14dz2              1.388982       2.925018

                          8       1   16fx3              1.469914       3.502365
                          8       1   16fx2y             1.469914       7.831527
                          8       1   16fx2z             1.469914       7.831527
                          8       1   16fxy2             1.469914       7.831527
                          8       1   16fxyz             1.469914      13.564602
                          8       1   16fxz2             1.469914       7.831527
                          8       1   16fy3              1.469914       3.502365
                          8       1   16fy2z             1.469914       7.831527
                          8       1   16fyz2             1.469914       7.831527
                          8       1   16fz3              1.469914       3.502365

                          9       1    3s                1.869410       1.139432

                         10       1   10px               3.900887       7.814375
                         10       1   10py               3.900887       7.814375
                         10       1   10pz               3.900887       7.814375

                         11       1   15dx2              4.869073      26.268809
                         11       1   15dxy              4.869073      45.498912
                         11       1   15dxz              4.869073      45.498912
                         11       1   15dy2              4.869073      26.268809
                         11       1   15dyz              4.869073      45.498912
                         11       1   15dz2              4.869073      26.268809

                         12       1    4s                5.983821       2.726742

                         13       1   11px              10.648991      27.420517
                         13       1   11py              10.648991      27.420517
                         13       1   11pz              10.648991      27.420517

                         14       1    5s               18.362694       6.322115

                         15       1   12px              31.358469     105.775149
                         15       1   12py              31.358469     105.775149
                         15       1   12pz              31.358469     105.775149

                         16       1    6s               54.876123      14.369699

                         17       1    7s              162.368202      32.417971

       Atomic covalent radius [Angstrom]:                                  0.730

       Atomic van der Waals radius [Angstrom]:                             1.520

     The atoms of this atomic kind are PAW atoms (GAPW):
       Hard Gaussian function radius:                                      1.512
       Rho0 radius:                                                        1.512
       Maximum GTO radius used for PAW projector construction:            24.566

     GAPW Soft Basis Set                                 aug-DZVP-MOLOPT-ae_soft

       Number of orbital shell sets:                                           2
       Number of orbital shells:                                              10
       Number of primitive Cartesian functions:                                6
       Number of Cartesian basis functions:                                   35
       Number of spherical basis functions:                                   30
       Norm type:                                                              2

       Normalised Cartesian orbitals:

                        Set   Shell   Orbital            Exponent    Coefficient

                          1       1    2s                0.090000       0.120905
                                                         0.191936      -0.019521
                                                         0.750068       0.059582
                                                         2.907977       0.000000

                          1       2    3px               0.090000       0.000000
                                                         0.191936       0.023686
                                                         0.750068       0.626550
                                                         2.907977       2.082711
                          1       2    3py               0.090000       0.000000
                                                         0.191936       0.023686
                                                         0.750068       0.626550
                                                         2.907977       2.082711
                          1       2    3pz               0.090000       0.000000
                                                         0.191936       0.023686
                                                         0.750068       0.626550
                                                         2.907977       2.082711

                          1       3    4px               0.090000       0.000000
                                                         0.191936       0.196557
                                                         0.750068      -0.157257
                                                         2.907977      -0.566756
                          1       3    4py               0.090000       0.000000
                                                         0.191936       0.196557
                                                         0.750068      -0.157257
                                                         2.907977      -0.566756
                          1       3    4pz               0.090000       0.000000
                                                         0.191936       0.196557
                                                         0.750068      -0.157257
                                                         2.907977      -0.566756

                          1       4    5px               0.090000       0.020606
                                                         0.191936       0.124186
                                                         0.750068       0.098287
                                                         2.907977       0.000000
                          1       4    5py               0.090000       0.020606
                                                         0.191936       0.124186
                                                         0.750068       0.098287
                                                         2.907977       0.000000
                          1       4    5pz               0.090000       0.020606
                                                         0.191936       0.124186
                                                         0.750068       0.098287
                                                         2.907977       0.000000

                          1       5    4dx2              0.090000       0.000000
                                                         0.191936       0.030414
                                                         0.750068       0.724129
                                                         2.907977       1.586204
                          1       5    4dxy              0.090000       0.000000
                                                         0.191936       0.052678
                                                         0.750068       1.254227
                                                         2.907977       2.747386
                          1       5    4dxz              0.090000       0.000000
                                                         0.191936       0.052678
                                                         0.750068       1.254227
                                                         2.907977       2.747386
                          1       5    4dy2              0.090000       0.000000
                                                         0.191936       0.030414
                                                         0.750068       0.724129
                                                         2.907977       1.586204
                          1       5    4dyz              0.090000       0.000000
                                                         0.191936       0.052678
                                                         0.750068       1.254227
                                                         2.907977       2.747386
                          1       5    4dz2              0.090000       0.000000
                                                         0.191936       0.030414
                                                         0.750068       0.724129
                                                         2.907977       1.586204

                          1       6    5dx2              0.090000      -0.010181
                                                         0.191936       0.018957
                                                         0.750068       0.933882
                                                         2.907977       0.008471
                          1       6    5dxy              0.090000      -0.017634
                                                         0.191936       0.032834
                                                         0.750068       1.617531
                                                         2.907977       0.014671
                          1       6    5dxz              0.090000      -0.017634
                                                         0.191936       0.032834
                                                         0.750068       1.617531
                                                         2.907977       0.014671
                          1       6    5dy2              0.090000      -0.010181
                                                         0.191936       0.018957
                                                         0.750068       0.933882
                                                         2.907977       0.008471
                          1       6    5dyz              0.090000      -0.017634
                                                         0.191936       0.032834
                                                         0.750068       1.617531
                                                         2.907977       0.014671
                          1       6    5dz2              0.090000      -0.010181
                                                         0.191936       0.018957
                                                         0.750068       0.933882
                                                         2.907977       0.008471

                          1       7    5fx3              0.090000       0.003073
                                                         0.191936       0.017866
                                                         0.750068       0.208981
                                                         2.907977      -1.809714
                          1       7    5fx2y             0.090000       0.006871
                                                         0.191936       0.039950
                                                         0.750068       0.467295
                                                         2.907977      -4.046643
                          1       7    5fx2z             0.090000       0.006871
                                                         0.191936       0.039950
                                                         0.750068       0.467295
                                                         2.907977      -4.046643
                          1       7    5fxy2             0.090000       0.006871
                                                         0.191936       0.039950
                                                         0.750068       0.467295
                                                         2.907977      -4.046643
                          1       7    5fxyz             0.090000       0.011901
                                                         0.191936       0.069196
                                                         0.750068       0.809378
                                                         2.907977      -7.008992
                          1       7    5fxz2             0.090000       0.006871
                                                         0.191936       0.039950
                                                         0.750068       0.467295
                                                         2.907977      -4.046643
                          1       7    5fy3              0.090000       0.003073
                                                         0.191936       0.017866
                                                         0.750068       0.208981
                                                         2.907977      -1.809714
                          1       7    5fy2z             0.090000       0.006871
                                                         0.191936       0.039950
                                                         0.750068       0.467295
                                                         2.907977      -4.046643
                          1       7    5fyz2             0.090000       0.006871
                                                         0.191936       0.039950
                                                         0.750068       0.467295
                                                         2.907977      -4.046643
                          1       7    5fz3              0.090000       0.003073
                                                         0.191936       0.017866
                                                         0.750068       0.208981
                                                         2.907977      -1.809714

                          2       1    1s                0.293338      -0.001581
                                                         0.941883       0.076823

                          2       2    2s                0.293338       0.124568
                                                         0.941883       0.386056

                          2       3    3s                0.293338       0.411906
                                                         0.941883      -0.735854

     AE Potential information for                                            ALL

       Description:                                       All-electron potential
                                          Krack, Parrinello, PCCP 2, 2105 (2000)

       Gaussian exponent of the core charge distribution:               8.154466
       Electronic configuration (s p d ...):                           4   4   0


 MOLECULE KIND INFORMATION


 All atoms are their own molecule, skipping detailed information


 TOTAL NUMBERS AND MAXIMUM NUMBERS

  Total number of            - Atomic kinds:                                   1
                             - Atoms:                                          2
                             - Shell sets:                                     4
                             - Shells:                                        20
                             - Primitive Cartesian functions:                 24
                             - Cartesian basis functions:                     70
                             - Spherical basis functions:                     60

  Maximum angular momentum of the orbital basis functions:                     3


 MODULE QUICKSTEP: ATOMIC COORDINATES IN ANGSTROM

   Atom Kind Element         X             Y             Z       Z(eff)     Mass
      1    1 O     8     15.603900     15.000000     15.000000   8.0000  15.9994
      2    1 O     8     14.396100     15.000000     15.000000   8.0000  15.9994



 SCF PARAMETERS         Density guess:                                    ATOMIC
                        --------------------------------------------------------
                        max_scf:                                             500
                        max_scf_history:                                       0
                        max_diis:                                              4
                        --------------------------------------------------------
                        eps_scf:                                        1.00E-06
                        eps_scf_history:                                0.00E+00
                        eps_diis:                                       1.00E-01
                        eps_eigval:                                     1.00E-05
                        --------------------------------------------------------
                        level_shift [a.u.]:                             0.000000
                        added MOs                                        52    0
                        --------------------------------------------------------
                        Mixing method:                            BROYDEN_MIXING
                                                charge density mixing in g-space
                        --------------------------------------------------------
                        No outer SCF

 PW_GRID| Information for grid number                                          1
 PW_GRID| Grid distributed over                                    24 processors
 PW_GRID| Real space group dimensions                                    24    1
 PW_GRID| the grid is blocked:                                                NO
 PW_GRID| Cutoff [a.u.]                                                    250.0
 PW_GRID| spherical cutoff:                                                   NO
 PW_GRID|   Bounds   1           -202     202                Points:         405
 PW_GRID|   Bounds   2           -202     202                Points:         405
 PW_GRID|   Bounds   3           -202     202                Points:         405
 PW_GRID| Volume element (a.u.^3)  0.2743E-02     Volume (a.u.^3)    182205.0337
 PW_GRID| Grid span                                                    FULLSPACE
 PW_GRID|   Distribution                         Average         Max         Min
 PW_GRID|   G-Vectors                          2767921.9     2768175     2767770
 PW_GRID|   G-Rays                                6834.4        6835        6834
 PW_GRID|   Real Space Points                  2767921.9     2788425     2624400

 PW_GRID| Information for grid number                                          2
 PW_GRID| Number of the reference grid                                         1
 PW_GRID| Grid distributed over                                    24 processors
 PW_GRID| Real space group dimensions                                    24    1
 PW_GRID| the grid is blocked:                                                NO
 PW_GRID| Cutoff [a.u.]                                                     83.3
 PW_GRID| spherical cutoff:                                                   NO
 PW_GRID|   Bounds   1           -120     119                Points:         240
 PW_GRID|   Bounds   2           -120     119                Points:         240
 PW_GRID|   Bounds   3           -120     119                Points:         240
 PW_GRID| Volume element (a.u.^3)  0.1318E-01     Volume (a.u.^3)    182205.0337
 PW_GRID| Grid span                                                    FULLSPACE
 PW_GRID|   Distribution                         Average         Max         Min
 PW_GRID|   G-Vectors                           576000.0      576240      575760
 PW_GRID|   G-Rays                                2400.0        2401        2399
 PW_GRID|   Real Space Points                   576000.0      576000      576000

 PW_GRID| Information for grid number                                          3
 PW_GRID| Number of the reference grid                                         1
 PW_GRID| Grid distributed over                                    24 processors
 PW_GRID| Real space group dimensions                                    24    1
 PW_GRID| the grid is blocked:                                                NO
 PW_GRID| Cutoff [a.u.]                                                     27.8
 PW_GRID| spherical cutoff:                                                   NO
 PW_GRID|   Bounds   1            -67      67                Points:         135
 PW_GRID|   Bounds   2            -67      67                Points:         135
 PW_GRID|   Bounds   3            -67      67                Points:         135
 PW_GRID| Volume element (a.u.^3)  0.7406E-01     Volume (a.u.^3)    182205.0337
 PW_GRID| Grid span                                                    FULLSPACE
 PW_GRID|   Distribution                         Average         Max         Min
 PW_GRID|   G-Vectors                           102515.6      102735      102330
 PW_GRID|   G-Rays                                 759.4         761         758
 PW_GRID|   Real Space Points                   102515.6      109350       91125

 PW_GRID| Information for grid number                                          4
 PW_GRID| Number of the reference grid                                         1
 PW_GRID| Grid distributed over                                    24 processors
 PW_GRID| Real space group dimensions                                    24    1
 PW_GRID| the grid is blocked:                                                NO
 PW_GRID| Cutoff [a.u.]                                                      9.3
 PW_GRID| spherical cutoff:                                                   NO
 PW_GRID|   Bounds   1            -40      39                Points:          80
 PW_GRID|   Bounds   2            -40      39                Points:          80
 PW_GRID|   Bounds   3            -40      39                Points:          80
 PW_GRID| Volume element (a.u.^3)  0.3559         Volume (a.u.^3)    182205.0337
 PW_GRID| Grid span                                                    FULLSPACE
 PW_GRID|   Distribution                         Average         Max         Min
 PW_GRID|   G-Vectors                            21333.3       21360       21280
 PW_GRID|   G-Rays                                 266.7         267         266
 PW_GRID|   Real Space Points                    21333.3       25600       19200

 POISSON| Solver                                                         WAVELET
 POISSON| Wavelet| Scaling function                                           40
 POISSON| Periodicity                                                       NONE

 RS_GRID| Information for grid number                                          1
 RS_GRID|   Bounds   1           -202     202                Points:         405
 RS_GRID|   Bounds   2           -202     202                Points:         405
 RS_GRID|   Bounds   3           -202     202                Points:         405
 RS_GRID| Real space distribution over                                  4 groups
 RS_GRID| Real space distribution along direction                              2
 RS_GRID| Border size                                                         34
 RS_GRID| Real space distribution over                                  6 groups
 RS_GRID| Real space distribution along direction                              3
 RS_GRID| Border size                                                         34
 RS_GRID|   Distribution                         Average         Max         Min
 RS_GRID|   Planes                                 169.2         170         169
 RS_GRID|   Distribution                         Average         Max         Min
 RS_GRID|   Planes                                 135.5         136         135

 RS_GRID| Information for grid number                                          2
 RS_GRID|   Bounds   1           -120     119                Points:         240
 RS_GRID|   Bounds   2           -120     119                Points:         240
 RS_GRID|   Bounds   3           -120     119                Points:         240
 RS_GRID| Real space distribution over                                  4 groups
 RS_GRID| Real space distribution along direction                              2
 RS_GRID| Border size                                                         34
 RS_GRID| Real space distribution over                                  6 groups
 RS_GRID| Real space distribution along direction                              3
 RS_GRID| Border size                                                         34
 RS_GRID|   Distribution                         Average         Max         Min
 RS_GRID|   Planes                                 128.0         128         128
 RS_GRID|   Distribution                         Average         Max         Min
 RS_GRID|   Planes                                 108.0         108         108

 RS_GRID| Information for grid number                                          3
 RS_GRID|   Bounds   1            -67      67                Points:         135
 RS_GRID|   Bounds   2            -67      67                Points:         135
 RS_GRID|   Bounds   3            -67      67                Points:         135
 RS_GRID| Real space fully replicated
 RS_GRID| Group size                                                           1

 RS_GRID| Information for grid number                                          4
 RS_GRID|   Bounds   1            -40      39                Points:          80
 RS_GRID|   Bounds   2            -40      39                Points:          80
 RS_GRID|   Bounds   3            -40      39                Points:          80
 RS_GRID| Real space fully replicated
 RS_GRID| Group size                                                           1

  HFX_INFO| Replica ID:                                                        1
  HFX_INFO| FRACTION:                                               0.2500000000
  HFX_INFO| Interaction Potential:                                       COULOMB
  HFX_INFO| EPS_SCHWARZ:                                                 1.0E-10
  HFX_INFO| EPS_SCHWARZ_FORCES                                           1.0E-08
  HFX_INFO| EPS_STORAGE_SCALING:                                         1.0E+00
  HFX_INFO| NBINS:                                                            64
  HFX_INFO| BLOCK_SIZE:                                                        1
  HFX_INFO| Number of periodic shells considered:                           NONE
  HFX_INFO| Number of periodic cells considered:                            NONE

 
 RI-RPA| using GPW style
 

 OVERLAP MATRIX CONDITION NUMBER
 1-Norm Condition Number (Estimate)
   CN : |A|*|A^-1|:  5.696E+000 *  6.106E+003   = 3.478E+004  Log(1-CN):  4.5413
 1-Norm and 2-Norm Condition Numbers using Diagonalization
   CN : |A|*|A^-1|:  5.696E+000 *  6.106E+003   = 3.478E+004  Log(1-CN):  4.5413
   CN : max/min ev:  4.081E+000 /  2.235E-004   = 1.825E+004  Log(2-CN):  4.2614

 Number of electrons:                                                         16
 Number of occupied orbitals:                                                  8
 Number of molecular orbitals:                                                60

 Number of orbital functions:                                                 60
 Number of independent orbital functions:                                     60

 Extrapolation method: initial_guess

 Atomic guess: The first density matrix is obtained in terms of atomic orbitals
               and electronic configurations assigned to each atomic kind

 Guess for atomic kind: O

 Electronic structure
    Total number of core electrons                                          0.00
    Total number of valence electrons                                       8.00
    Total number of electrons                                               8.00
    Multiplicity                                                   not specified
    S      2.00  2.00
    P      4.00


 *******************************************************************************
                  Iteration          Convergence                     Energy [au]
 *******************************************************************************
                          1        0.848674                     -74.203659346590
                          2        0.676538                     -74.224350300929
                          3        0.118146E-01                 -74.325384117638
                          4        0.875023E-03                 -74.325411956579
                          5        0.262407E-04                 -74.325412100097
                          6        0.953925E-07                 -74.325412100225

 Energy components [Hartree]           Total Energy ::          -74.325412100225
                                        Band Energy ::          -40.703914598313
                                     Kinetic Energy ::           74.466117831440
                                   Potential Energy ::         -148.791529931665
                                      Virial (-V/T) ::            1.998110473121
                                        Core Energy ::         -102.666843544949
                                          XC Energy ::           -7.743421966386
                                     Coulomb Energy ::           36.084853411110

 Orbital energies  State     L     Occupation   Energy[a.u.]          Energy[eV]

                       1     0          2.000     -18.799663         -511.564844
                       2     0          2.000      -0.852501          -23.197720

                       1     1          4.000      -0.349897           -9.521179


 Total Electron Density at R=0:                                       292.094851
 Re-scaling the density matrix to get the right number of electrons
                  # Electrons              Trace(P)               Scaling factor
                           16                16.000                        1.000


 SCF WAVEFUNCTION OPTIMIZATION

  Step     Update method      Time    Convergence         Total energy    Change
  ------------------------------------------------------------------------------

  HFX_MEM_INFO| Est. max. program size before HFX [MiB]:                    2149
  HFX_MEM_INFO| Number of cart. primitive ERI's calculated:            760130289
  HFX_MEM_INFO| Number of sph. ERI's calculated:                         4860000
  HFX_MEM_INFO| Number of sph. ERI's stored in-core:                     4860000
  HFX_MEM_INFO| Number of sph. ERI's stored on disk:                           0
  HFX_MEM_INFO| Number of sph. ERI's calculated on the fly:                    0
  HFX_MEM_INFO| Total memory consumption ERI's RAM [MiB]:                     21
  HFX_MEM_INFO| Whereof max-vals [MiB]:                                        1
  HFX_MEM_INFO| Total compression factor ERI's RAM:                         1.81
  HFX_MEM_INFO| Total memory consumption ERI's disk [MiB]:                     0
  HFX_MEM_INFO| Total compression factor ERI's disk:                        0.00
  HFX_MEM_INFO| Size of density/Fock matrix [MiB]:                             0
  HFX_MEM_INFO| Size of buffers [MiB]:                                        16
  HFX_MEM_INFO| Est. max. program size after HFX  [MiB]:                    2684

     1 NoMix/Diag. 0.10E+00   19.5     1.13822831      -150.1636200753 -1.50E+02
     2 Broy./Diag. 0.10E+00    4.7     0.03820407      -149.6438966103  5.20E-01
     3 Broy./Diag. 0.10E+00    4.7     0.03949412      -149.7745394667 -1.31E-01
     4 Broy./Diag. 0.10E+00    4.7     0.01448572      -150.0297178983 -2.55E-01
     5 Broy./Diag. 0.10E+00    4.8     0.00603425      -150.0287496318  9.68E-04
     6 Broy./Diag. 0.10E+00    5.0     0.02288631      -149.9136482260  1.15E-01
     7 Broy./Diag. 0.10E+00    5.0     0.00156739      -149.8480119314  6.56E-02
     8 Broy./Diag. 0.10E+00    5.0     0.00085996      -149.8558805363 -7.87E-03
     9 Broy./Diag. 0.10E+00    5.2     0.00271830      -149.8953387946 -3.95E-02
    10 Broy./Diag. 0.10E+00    5.3     0.00114502      -149.9167958158 -2.15E-02
    11 Broy./Diag. 0.10E+00    5.3     0.00178956      -149.9022303704  1.46E-02
    12 Broy./Diag. 0.10E+00    5.3     0.00065512      -149.8959576990  6.27E-03
    13 Broy./Diag. 0.10E+00    5.3     0.00073359      -149.8979580176 -2.00E-03
    14 Broy./Diag. 0.10E+00    5.3     0.00176059      -149.8974268637  5.31E-04
    15 Broy./Diag. 0.10E+00    5.3     0.00021487      -149.8972606549  1.66E-04
    16 Broy./Diag. 0.10E+00    5.3     0.00161363      -149.8999804863 -2.72E-03
    17 Broy./Diag. 0.10E+00    5.5     0.00110650      -149.9008162666 -8.36E-04
    18 Broy./Diag. 0.10E+00    5.3     0.00028194      -149.9003088780  5.07E-04
    19 Broy./Diag. 0.10E+00    5.3     0.00036836      -149.9002149534  9.39E-05
    20 Broy./Diag. 0.10E+00    5.4     0.00035233      -149.8996459378  5.69E-04
    21 Broy./Diag. 0.10E+00    5.3     0.00019631      -149.8981906402  1.46E-03
    22 Broy./Diag. 0.10E+00    5.3     0.00004846      -149.8976336952  5.57E-04
    23 Broy./Diag. 0.10E+00    5.3     0.00007227      -149.8979924137 -3.59E-04
    24 Broy./Diag. 0.10E+00    5.3     0.00005991      -149.8981537708 -1.61E-04
    25 Broy./Diag. 0.10E+00    5.3     0.00025415      -149.8979430067  2.11E-04
    26 Broy./Diag. 0.10E+00    5.3     0.00005108      -149.8980441034 -1.01E-04
    27 Broy./Diag. 0.10E+00    5.3     0.00005717      -149.8981766591 -1.33E-04
    28 Broy./Diag. 0.10E+00    5.4     0.00003668      -149.8982061855 -2.95E-05
    29 Broy./Diag. 0.10E+00    5.3     0.00004656      -149.8982115554 -5.37E-06
    30 Broy./Diag. 0.10E+00    5.3     0.00005212      -149.8981696525  4.19E-05
    31 Broy./Diag. 0.10E+00    5.3     0.00007142      -149.8980821558  8.75E-05
    32 Broy./Diag. 0.10E+00    5.4     0.00008074      -149.8980228845  5.93E-05
    33 Broy./Diag. 0.10E+00    5.4     0.00012130      -149.8980630902 -4.02E-05
    34 Broy./Diag. 0.10E+00    5.4     0.00018899      -149.8980691874 -6.10E-06
    35 Broy./Diag. 0.10E+00    5.3     0.00029027      -149.8980677032  1.48E-06
    36 Broy./Diag. 0.10E+00    5.3     0.00045108      -149.8980497694  1.79E-05
    37 Broy./Diag. 0.10E+00    5.3     0.00070188      -149.8980352483  1.45E-05
    38 Broy./Diag. 0.10E+00    5.3     0.00109234      -149.8980274922  7.76E-06
    39 Broy./Diag. 0.10E+00    5.3     0.00170806      -149.8980405115 -1.30E-05
    40 Broy./Diag. 0.10E+00    5.3     0.00265747      -149.8980592542 -1.87E-05
    41 Broy./Diag. 0.10E+00    5.4     0.00413582      -149.8980902875 -3.10E-05
    42 Broy./Diag. 0.10E+00    5.3     0.00642131      -149.8981881584 -9.79E-05
    43 Broy./Diag. 0.10E+00    5.3     0.00997132      -149.8982174087 -2.93E-05
    44 Broy./Diag. 0.10E+00    5.3     0.01538556      -149.8982345715 -1.72E-05
    45 Broy./Diag. 0.10E+00    5.4     0.02363224      -149.8980539004  1.81E-04
    46 Broy./Diag. 0.10E+00    5.3     0.03583488      -149.8977288851  3.25E-04
    47 Broy./Diag. 0.10E+00    5.3     0.05276782      -149.8972667100  4.62E-04
    48 Broy./Diag. 0.10E+00    5.3     0.07286022      -149.8964644868  8.02E-04
    49 Broy./Diag. 0.10E+00    5.3     0.08765023      -149.8946461382  1.82E-03
    50 Broy./Diag. 0.10E+00    5.3     0.13510460      -149.8907213142  3.92E-03
    51 Broy./Diag. 0.10E+00    5.3     0.17374179      -149.8835380334  7.18E-03
    52 Broy./Diag. 0.10E+00    5.3     0.17239718      -149.8727124915  1.08E-02
    53 Broy./Diag. 0.10E+00    5.3     0.13641596      -149.8605051901  1.22E-02
    54 Broy./Diag. 0.10E+00    5.3     0.09116531      -149.8494551263  1.11E-02
    55 Broy./Diag. 0.10E+00    5.4     0.08487240      -149.8411621594  8.29E-03
    56 Broy./Diag. 0.10E+00    5.3     0.07110937      -149.8357298340  5.43E-03
    57 Broy./Diag. 0.10E+00    5.3     0.05604611      -149.8324487314  3.28E-03
    58 Broy./Diag. 0.10E+00    5.3     0.04289021      -149.8304310683  2.02E-03
    59 Broy./Diag. 0.10E+00    5.4     0.03260282      -149.8287057083  1.73E-03
    60 Broy./Diag. 0.10E+00    5.3     0.02666568      -149.8260502796  2.66E-03
    61 Broy./Diag. 0.10E+00    5.3     0.02079570      -149.8224661662  3.58E-03
    62 Broy./Diag. 0.10E+00    5.4     0.01881091      -149.8201980209  2.27E-03
    63 Broy./Diag. 0.10E+00    5.3     0.01917237      -149.8137984849  6.40E-03
    64 Broy./Diag. 0.10E+00    5.3     0.02053894      -149.8281874169 -1.44E-02
    65 Broy./Diag. 0.10E+00    5.3     0.07892163      -149.5730972337  2.55E-01
    66 Broy./Diag. 0.10E+00    5.3     0.14103658      -149.1254931315  4.48E-01
    67 Broy./Diag. 0.10E+00    5.3     0.11895885      -149.1419011994 -1.64E-02
    68 Broy./Diag. 0.10E+00    5.3     0.11673721      -149.7245735833 -5.83E-01
    69 Broy./Diag. 0.10E+00    5.3     0.12484673      -150.0813229607 -3.57E-01
    70 Broy./Diag. 0.10E+00    5.3     0.04472470      -149.9700329857  1.11E-01
    71 Broy./Diag. 0.10E+00    5.3     0.01369130      -149.8642414390  1.06E-01
    72 Broy./Diag. 0.10E+00    5.3     0.02993968      -150.1158461581 -2.52E-01
    73 Broy./Diag. 0.10E+00    5.4     0.06731993      -149.7834992917  3.32E-01
    74 Broy./Diag. 0.10E+00    5.4     0.04896439      -149.4315036933  3.52E-01
    75 Broy./Diag. 0.10E+00    5.3     0.06447294      -149.2332834642  1.98E-01
    76 Broy./Diag. 0.10E+00    5.3     0.17460435      -149.6777566439 -4.44E-01
    77 Broy./Diag. 0.10E+00    5.3     0.06941714      -150.1137494453 -4.36E-01
    78 Broy./Diag. 0.10E+00    5.3     0.09428030      -150.0082076802  1.06E-01
    79 Broy./Diag. 0.10E+00    5.4     0.04053644      -150.0849012016 -7.67E-02
    80 Broy./Diag. 0.10E+00    5.3     0.06503414      -150.1837766784 -9.89E-02
    81 Broy./Diag. 0.10E+00    5.3     0.01717620      -150.0872370276  9.65E-02
    82 Broy./Diag. 0.10E+00    5.3     0.01325723      -150.0409023097  4.63E-02
    83 Broy./Diag. 0.10E+00    5.3     0.05299133      -149.9982585271  4.26E-02
    84 Broy./Diag. 0.10E+00    5.3     0.02838674      -149.9043057331  9.40E-02
    85 Broy./Diag. 0.10E+00    5.3     0.02042417      -149.8463988156  5.79E-02
    86 Broy./Diag. 0.10E+00    5.3     0.01223950      -149.8749366138 -2.85E-02
    87 Broy./Diag. 0.10E+00    5.3     0.01362743      -149.9145682872 -3.96E-02
    88 Broy./Diag. 0.10E+00    5.3     0.01174464      -149.9324666354 -1.79E-02
    89 Broy./Diag. 0.10E+00    5.4     0.00512098      -149.9238333404  8.63E-03
    90 Broy./Diag. 0.10E+00    5.4     0.00973164      -149.9142833052  9.55E-03
    91 Broy./Diag. 0.10E+00    5.3     0.00812515      -149.9216961516 -7.41E-03
    92 Broy./Diag. 0.10E+00    5.4     0.01100416      -149.9179519099  3.74E-03
    93 Broy./Diag. 0.10E+00    5.3     0.00491565      -149.9037270771  1.42E-02
    94 Broy./Diag. 0.10E+00    5.3     0.00682052      -149.8984704790  5.26E-03
    95 Broy./Diag. 0.10E+00    5.3     0.00505726      -149.8981616355  3.09E-04
    96 Broy./Diag. 0.10E+00    5.4     0.00227271      -149.8993161719 -1.15E-03
    97 Broy./Diag. 0.10E+00    5.3     0.00277924      -149.8991626439  1.54E-04
    98 Broy./Diag. 0.10E+00    5.4     0.00132602      -149.8996389114 -4.76E-04
    99 Broy./Diag. 0.10E+00    5.3     0.00049597      -149.8995116083  1.27E-04
   100 Broy./Diag. 0.10E+00    5.3     0.00145582      -149.8993604597  1.51E-04
   101 Broy./Diag. 0.10E+00    5.3     0.00132874      -149.8982212789  1.14E-03
   102 Broy./Diag. 0.10E+00    5.4     0.00043657      -149.8982284057 -7.13E-06
   103 Broy./Diag. 0.10E+00    5.3     0.00084622      -149.8985651738 -3.37E-04
   104 Broy./Diag. 0.10E+00    5.3     0.00110257      -149.8989424142 -3.77E-04
   105 Broy./Diag. 0.10E+00    5.3     0.00053700      -149.8999039761 -9.62E-04
   106 Broy./Diag. 0.10E+00    5.4     0.00018781      -149.9004160380 -5.12E-04
   107 Broy./Diag. 0.10E+00    5.3     0.00025500      -149.9002026548  2.13E-04
   108 Broy./Diag. 0.10E+00    5.3     0.00031900      -149.8995407130  6.62E-04
   109 Broy./Diag. 0.10E+00    5.3     0.00020648      -149.8989761646  5.65E-04
   110 Broy./Diag. 0.10E+00    5.3     0.00029113      -149.8982885814  6.88E-04
   111 Broy./Diag. 0.10E+00    5.3     0.00029657      -149.8978211085  4.67E-04
   112 Broy./Diag. 0.10E+00    5.3     0.00023205      -149.8977347193  8.64E-05
   113 Broy./Diag. 0.10E+00    5.4     0.00006618      -149.8978691428 -1.34E-04
   114 Broy./Diag. 0.10E+00    5.4     0.00009892      -149.8980783579 -2.09E-04
   115 Broy./Diag. 0.10E+00    5.4     0.00004773      -149.8980649180  1.34E-05
   116 Broy./Diag. 0.10E+00    5.3     0.00013114      -149.8979968840  6.80E-05
   117 Broy./Diag. 0.10E+00    5.3     0.00028910      -149.8981211930 -1.24E-04
   118 Broy./Diag. 0.10E+00    5.3     0.00007483      -149.8981435658 -2.24E-05
   119 Broy./Diag. 0.10E+00    5.5     0.00009395      -149.8980151837  1.28E-04
   120 Broy./Diag. 0.10E+00    5.3     0.00007826      -149.8979613917  5.38E-05
   121 Broy./Diag. 0.10E+00    5.3     0.00005110      -149.8979767500 -1.54E-05
   122 Broy./Diag. 0.10E+00    5.3     0.00002861      -149.8979959746 -1.92E-05
   123 Broy./Diag. 0.10E+00    5.3     0.00006402      -149.8979784985  1.75E-05
   124 Broy./Diag. 0.10E+00    5.4     0.00007754      -149.8980206343 -4.21E-05
   125 Broy./Diag. 0.10E+00    5.3     0.00008397      -149.8981078642 -8.72E-05
   126 Broy./Diag. 0.10E+00    5.4     0.00009974      -149.8981549278 -4.71E-05
   127 Broy./Diag. 0.10E+00    5.3     0.00021027      -149.8981615952 -6.67E-06
   128 Broy./Diag. 0.10E+00    5.3     0.00032982      -149.8981618803 -2.85E-07
   129 Broy./Diag. 0.10E+00    5.4     0.00051384      -149.8981642136 -2.33E-06
   130 Broy./Diag. 0.10E+00    5.4     0.00080281      -149.8981673362 -3.12E-06
   131 Broy./Diag. 0.10E+00    5.3     0.00123868      -149.8981640495  3.29E-06
   132 Broy./Diag. 0.10E+00    5.3     0.00194279      -149.8981565524  7.50E-06
   133 Broy./Diag. 0.10E+00    5.3     0.00296155      -149.8981463569  1.02E-05
   134 Broy./Diag. 0.10E+00    5.3     0.00455618      -149.8981277464  1.86E-05
   135 Broy./Diag. 0.10E+00    5.3     0.00694706      -149.8981132495  1.45E-05
   136 Broy./Diag. 0.10E+00    5.5     0.01090211      -149.8980905469  2.27E-05
   137 Broy./Diag. 0.10E+00    5.4     0.01696736      -149.8980771156  1.34E-05
   138 Broy./Diag. 0.10E+00    5.4     0.02610369      -149.8980481687  2.89E-05
   139 Broy./Diag. 0.10E+00    5.3     0.03936874      -149.8979090069  1.39E-04
   140 Broy./Diag. 0.10E+00    5.3     0.05709594      -149.8974570688  4.52E-04
   141 Broy./Diag. 0.10E+00    5.4     0.07648436      -149.8963894842  1.07E-03
   142 Broy./Diag. 0.10E+00    5.3     0.09873625      -149.8940419145  2.35E-03
   143 Broy./Diag. 0.10E+00    5.3     0.14988686      -149.8892632985  4.78E-03
   144 Broy./Diag. 0.10E+00    5.3     0.17944986      -149.8809110034  8.35E-03
   145 Broy./Diag. 0.10E+00    5.4     0.16670082      -149.8693471178  1.16E-02
   146 Broy./Diag. 0.10E+00    5.3     0.12463793      -149.8570125338  1.23E-02
   147 Broy./Diag. 0.10E+00    5.3     0.09058267      -149.8467717015  1.02E-02
   148 Broy./Diag. 0.10E+00    5.3     0.08191840      -149.8396656789  7.11E-03
   149 Broy./Diag. 0.10E+00    5.3     0.06715021      -149.8352119018  4.45E-03
   150 Broy./Diag. 0.10E+00    5.3     0.05220711      -149.8326679846  2.54E-03
   151 Broy./Diag. 0.10E+00    5.3     0.03946619      -149.8314861885  1.18E-03
   152 Broy./Diag. 0.10E+00    5.3     0.02910476      -149.8325055615 -1.02E-03
   153 Broy./Diag. 0.10E+00    5.4     0.02092837      -149.8444618193 -1.20E-02
   154 Broy./Diag. 0.10E+00    5.3     0.01532932      -149.8342205690  1.02E-02
   155 Broy./Diag. 0.10E+00    5.3     0.00599238      -149.8301695873  4.05E-03
   156 Broy./Diag. 0.10E+00    5.3     0.05880883      -149.9297773444 -9.96E-02
   157 Broy./Diag. 0.10E+00    5.3     0.09158018      -150.0108046529 -8.10E-02
   158 Broy./Diag. 0.10E+00    5.3     0.13159274      -150.0176458628 -6.84E-03
   159 Broy./Diag. 0.10E+00    5.3     0.14015235      -149.9671403669  5.05E-02
   160 Broy./Diag. 0.10E+00    5.4     0.13373546      -150.0056785136 -3.85E-02
   161 Broy./Diag. 0.10E+00    5.3     0.07315940      -149.9884365300  1.72E-02
   162 Broy./Diag. 0.10E+00    5.4     0.04117672      -149.9639869984  2.44E-02
   163 Broy./Diag. 0.10E+00    5.3     0.04233950      -149.9409914173  2.30E-02
   164 Broy./Diag. 0.10E+00    5.4     0.04063228      -149.8996692610  4.13E-02
   165 Broy./Diag. 0.10E+00    5.3     0.10031729      -149.8894766819  1.02E-02
   166 Broy./Diag. 0.10E+00    5.3     0.10019047      -149.8618569267  2.76E-02
   167 Broy./Diag. 0.10E+00    5.3     0.09527186      -149.8733132408 -1.15E-02
   168 Broy./Diag. 0.10E+00    5.3     0.02509043      -149.8408429624  3.25E-02
   169 Broy./Diag. 0.10E+00    5.4     0.03296792      -149.9282440434 -8.74E-02
   170 Broy./Diag. 0.10E+00    5.3     0.02637115      -149.9571695648 -2.89E-02
   171 Broy./Diag. 0.10E+00    5.3     0.04227282      -149.9505770781  6.59E-03
   172 Broy./Diag. 0.10E+00    5.3     0.01513686      -149.9425240541  8.05E-03
   173 Broy./Diag. 0.10E+00    5.4     0.00839837      -149.9461823471 -3.66E-03
   174 Broy./Diag. 0.10E+00    5.3     0.00999257      -149.9482514965 -2.07E-03
   175 Broy./Diag. 0.10E+00    5.3     0.01243698      -149.9379069760  1.03E-02
   176 Broy./Diag. 0.10E+00    5.4     0.00819023      -149.9264915250  1.14E-02
   177 Broy./Diag. 0.10E+00    5.3     0.00375874      -149.9210471091  5.44E-03
[...]
   418 Broy./Diag. 0.10E+00    5.3     0.00373802      -149.9254423079 -2.05E-03
   419 Broy./Diag. 0.10E+00    5.3     0.00192141      -149.9238498691  1.59E-03
   420 Broy./Diag. 0.10E+00    5.3     0.00487227      -149.9101976658  1.37E-02
   421 Broy./Diag. 0.10E+00    5.3     0.00232682      -149.9042220702  5.98E-03
   422 Broy./Diag. 0.10E+00    5.4     0.00330130      -149.9077773682 -3.56E-03
   423 Broy./Diag. 0.10E+00    5.3     0.00449876      -149.9121394487 -4.36E-03
   424 Broy./Diag. 0.10E+00    5.3     0.00292424      -149.9126118661 -4.72E-04
   425 Broy./Diag. 0.10E+00    5.4     0.00446778      -149.9080984596  4.51E-03
   426 Broy./Diag. 0.10E+00    5.3     0.00189127      -149.9043967593  3.70E-03
   427 Broy./Diag. 0.10E+00    5.3     0.00057302      -149.9028305872  1.57E-03
   428 Broy./Diag. 0.10E+00    5.3     0.00187633      -149.9019030047  9.28E-04
   429 Broy./Diag. 0.10E+00    5.3     0.00097628      -149.9010902774  8.13E-04
   430 Broy./Diag. 0.10E+00    5.3     0.00138808      -149.9009132522  1.77E-04
   431 Broy./Diag. 0.10E+00    5.4     0.00108170      -149.9010374860 -1.24E-04
   432 Broy./Diag. 0.10E+00    5.3     0.00095146      -149.9012584147 -2.21E-04
   433 Broy./Diag. 0.10E+00    5.5     0.00183661      -149.9016153131 -3.57E-04
   434 Broy./Diag. 0.10E+00    5.4     0.00049055      -149.9012372562  3.78E-04
   435 Broy./Diag. 0.10E+00    5.3     0.00097652      -149.8995954486  1.64E-03
   436 Broy./Diag. 0.10E+00    5.3     0.00046848      -149.8982635104  1.33E-03
   437 Broy./Diag. 0.10E+00    5.4     0.00029497      -149.8978157357  4.48E-04
   438 Broy./Diag. 0.10E+00    5.3     0.00052192      -149.8979797094 -1.64E-04
   439 Broy./Diag. 0.10E+00    5.5     0.00044085      -149.8981269888 -1.47E-04
   440 Broy./Diag. 0.10E+00    5.4     0.00011411      -149.8980102961  1.17E-04
   441 Broy./Diag. 0.10E+00    5.4     0.00060027      -149.8980272344 -1.69E-05
   442 Broy./Diag. 0.10E+00    5.3     0.00021555      -149.8985667949 -5.40E-04
   443 Broy./Diag. 0.10E+00    5.3     0.00015443      -149.8989821780 -4.15E-04
   444 Broy./Diag. 0.10E+00    5.3     0.00022367      -149.8989610388  2.11E-05
   445 Broy./Diag. 0.10E+00    5.3     0.00014726      -149.8988542773  1.07E-04
   446 Broy./Diag. 0.10E+00    5.3     0.00021285      -149.8985021719  3.52E-04
   447 Broy./Diag. 0.10E+00    5.3     0.00010476      -149.8982284563  2.74E-04
   448 Broy./Diag. 0.10E+00    5.3     0.00026184      -149.8980043747  2.24E-04
   449 Broy./Diag. 0.10E+00    5.4     0.00027241      -149.8979105748  9.38E-05
   450 Broy./Diag. 0.10E+00    5.4     0.00007107      -149.8979754021 -6.48E-05
   451 Broy./Diag. 0.10E+00    5.3     0.00004875      -149.8980229305 -4.75E-05
   452 Broy./Diag. 0.10E+00    5.3     0.00028178      -149.8980598060 -3.69E-05
   453 Broy./Diag. 0.10E+00    5.3     0.00036676      -149.8981041112 -4.43E-05
   454 Broy./Diag. 0.10E+00    5.3     0.00047055      -149.8981336679 -2.96E-05
   455 Broy./Diag. 0.10E+00    5.3     0.00067516      -149.8981768354 -4.32E-05
   456 Broy./Diag. 0.10E+00    5.4     0.00106877      -149.8981956110 -1.88E-05
   457 Broy./Diag. 0.10E+00    5.4     0.00169272      -149.8981666705  2.89E-05
   458 Broy./Diag. 0.10E+00    5.3     0.00235810      -149.8981240461  4.26E-05
   459 Broy./Diag. 0.10E+00    5.3     0.00390810      -149.8980308790  9.32E-05
   460 Broy./Diag. 0.10E+00    5.4     0.00631355      -149.8979027216  1.28E-04
   461 Broy./Diag. 0.10E+00    5.3     0.01070956      -149.8977798692  1.23E-04
   462 Broy./Diag. 0.10E+00    5.4     0.01729643      -149.8977339088  4.60E-05
   463 Broy./Diag. 0.10E+00    5.3     0.02524947      -149.8978310853 -9.72E-05
   464 Broy./Diag. 0.10E+00    5.3     0.03651630      -149.8980054330 -1.74E-04
   465 Broy./Diag. 0.10E+00    5.4     0.05087120      -149.8977173804  2.88E-04
   466 Broy./Diag. 0.10E+00    5.3     0.07486858      -149.8964978639  1.22E-03
   467 Broy./Diag. 0.10E+00    5.3     0.12002828      -149.8938128345  2.69E-03
   468 Broy./Diag. 0.10E+00    5.3     0.16435568      -149.8886313235  5.18E-03
   469 Broy./Diag. 0.10E+00    5.3     0.17750830      -149.8797239563  8.91E-03
   470 Broy./Diag. 0.10E+00    5.3     0.14791857      -149.8676918671  1.20E-02
   471 Broy./Diag. 0.10E+00    5.3     0.10714361      -149.8551845635  1.25E-02
   472 Broy./Diag. 0.10E+00    5.3     0.10410273      -149.8452499018  9.93E-03
   473 Broy./Diag. 0.10E+00    5.4     0.08839594      -149.8391945245  6.06E-03
   474 Broy./Diag. 0.10E+00    5.3     0.06991257      -149.8357678558  3.43E-03
   475 Broy./Diag. 0.10E+00    5.3     0.05370012      -149.8339841066  1.78E-03
   476 Broy./Diag. 0.10E+00    5.3     0.04339694      -149.8337160747  2.68E-04
   477 Broy./Diag. 0.10E+00    5.3     0.04554670      -149.8365017170 -2.79E-03
   478 Broy./Diag. 0.10E+00    5.4     0.07434340      -149.8432880922 -6.79E-03
   479 Broy./Diag. 0.10E+00    5.4     0.10989219      -149.8431181053  1.70E-04
   480 Broy./Diag. 0.10E+00    5.3     0.10813549      -149.8225814856  2.05E-02
   481 Broy./Diag. 0.10E+00    5.4     0.11484590      -149.7846556336  3.79E-02
   482 Broy./Diag. 0.10E+00    5.3     0.08163534      -149.7464149325  3.82E-02
   483 Broy./Diag. 0.10E+00    5.4     0.05152534      -149.7181160570  2.83E-02
   484 Broy./Diag. 0.10E+00    5.4     0.01133439      -149.6741263714  4.40E-02
   485 Broy./Diag. 0.10E+00    5.3     0.12437156      -149.6386692144  3.55E-02
   486 Broy./Diag. 0.10E+00    5.3     0.20509438      -149.5398018725  9.89E-02
   487 Broy./Diag. 0.10E+00    5.4     0.22408407      -149.4485520650  9.12E-02
   488 Broy./Diag. 0.10E+00    5.3     0.12346131      -149.4283460650  2.02E-02
   489 Broy./Diag. 0.10E+00    5.4     0.14806386      -149.3491045635  7.92E-02
   490 Broy./Diag. 0.10E+00    5.4     0.15682150      -149.6218323724 -2.73E-01
   491 Broy./Diag. 0.10E+00    5.3     0.29447227      -149.7484988451 -1.27E-01
   492 Broy./Diag. 0.10E+00    5.3     0.15514729      -149.7848813013 -3.64E-02
   493 Broy./Diag. 0.10E+00    5.3     0.07193745      -149.8548973031 -7.00E-02
   494 Broy./Diag. 0.10E+00    5.4     0.10454122      -149.8690535769 -1.42E-02
   495 Broy./Diag. 0.10E+00    5.4     0.12221168      -149.8527894988  1.63E-02
   496 Broy./Diag. 0.10E+00    5.3     0.08916307      -149.8258146739  2.70E-02
   497 Broy./Diag. 0.10E+00    5.4     0.02119450      -149.8994211399 -7.36E-02
   498 Broy./Diag. 0.10E+00    5.3     0.07999963      -149.6936050852  2.06E-01
   499 Broy./Diag. 0.10E+00    5.3     0.09192694      -149.7758443382 -8.22E-02
   500 Broy./Diag. 0.10E+00    5.3     0.07825929      -149.8467907765 -7.09E-02

  Leaving inner SCF loop after reaching   500 steps.


  Electronic density on regular grids:        -12.1396067370        3.8603932630
  Core density on regular grids:               16.0000000000        0.0000000000
  Hard and soft densities (Lebedev):         -101.1366139598      -97.2755508841
  Total Rho_soft + Rho1_hard - Rho1_soft      -16.0006698126
  Total charge density (r-space):              -0.0006698126
  Total Rho_soft + Rho0_soft (g-space):        -0.0006701192

  Overlap energy of the core charge distribution:               0.00000000200246
  Self energy of the core charge distribution:               -145.82024045573709
  Core Hamiltonian energy:                                    -13.14930262037864
  Hartree energy:                                              26.56154395612473
  Exchange-correlation energy:                                 -5.37009471812325
  Hartree-Fock Exchange energy:                                -4.05111246305741

  GAPW| Exc from hard and soft atomic rho1:                    -7.44619673356895
  GAPW| local Eh = 1 center integrals:                         -0.57138774379649

  Total energy:                                              -149.84679077653468

 *******************************************************************************
 *   ___                                                                       *
 *  /   \                                                                      *
 * [ABORT]                                                                     *
 *  \___/     SCF run NOT converged. To continue the calculation regardless,   *
 *    |             please set the keyword IGNORE_CONVERGENCE_FAILURE.         *
 *  O/|                                                                        *
 * /| |                                                                        *
 * / \                                                            qs_scf.F:611 *
 *******************************************************************************


 ===== Routine Calling Stack ===== 

            3 scf_env_do_scf
            2 qs_energies
            1 CP2K

 *******************************************************************************
 *   ___                                                                       *
 *  /   \                                                                      *
 * [ABORT]                                                                     *
 *  \___/     SCF run NOT converged. To continue the calculation regardless,   *
 *    |             please set the keyword IGNORE_CONVERGENCE_FAILURE.         *
 *  O/|                                                                        *
 * /| |                                                                        *
 * / \                                                            qs_scf.F:611 *
 *******************************************************************************


 ===== Routine Calling Stack ===== 

            3 scf_env_do_scf
            2 qs_energies
            1 CP2K

 *******************************************************************************
 *   ___                                                                       *
 *  /   \                                                                      *
 * [ABORT]                                                                     *
 *  \___/     SCF run NOT converged. To continue the calculation regardless,   *
 *    |             please set the keyword IGNORE_CONVERGENCE_FAILURE.         *
 *  O/|                                                                        *
 * /| |                                                                        *
 * / \                                                            qs_scf.F:611 *
 *******************************************************************************


 ===== Routine Calling Stack ===== 

            3 scf_env_do_scf
            2 qs_energies
            1 CP2K

 *******************************************************************************
 *   ___                                                                       *
 *  /   \                                                                      *
 * [ABORT]                                                                     *
 *  \___/     SCF run NOT converged. To continue the calculation regardless,   *
 *    |             please set the keyword IGNORE_CONVERGENCE_FAILURE.         *
 *  O/|                                                                        *
 * /| |                                                                        *
 * / \                                                            qs_scf.F:611 *
 *******************************************************************************


 ===== Routine Calling Stack ===== 

            3 scf_env_do_scf
            2 qs_energies
            1 CP2K

 *******************************************************************************
 *   ___                                                                       *
 *  /   \                                                                      *
 * [ABORT]                                                                     *
 *  \___/     SCF run NOT converged. To continue the calculation regardless,   *
 *    |             please set the keyword IGNORE_CONVERGENCE_FAILURE.         *
 *  O/|                                                                        *
 * /| |                                                                        *
 * / \                                                            qs_scf.F:611 *
 *******************************************************************************


 ===== Routine Calling Stack ===== 

            3 scf_env_do_scf
            2 qs_energies
            1 CP2K

 *******************************************************************************
 *   ___                                                                       *
 *  /   \                                                                      *
 * [ABORT]                                                                     *
 *  \___/     SCF run NOT converged. To continue the calculation regardless,   *
 *    |             please set the keyword IGNORE_CONVERGENCE_FAILURE.         *
 *  O/|                                                                        *
 * /| |                                                                        *
 * / \                                                            qs_scf.F:611 *
 *******************************************************************************


 ===== Routine Calling Stack ===== 

            3 scf_env_do_scf
            2 qs_energies
            1 CP2K

 *******************************************************************************
 *   ___                                                                       *
 *  /   \                                                                      *
 * [ABORT]                                                                     *
 *  \___/     SCF run NOT converged. To continue the calculation regardless,   *
 *    |             please set the keyword IGNORE_CONVERGENCE_FAILURE.         *
 *  O/|                                                                        *
 * /| |                                                                        *
 * / \                                                            qs_scf.F:611 *
 *******************************************************************************


 ===== Routine Calling Stack ===== 

            3 scf_env_do_scf
            2 qs_energies
            1 CP2K

 *******************************************************************************
 *   ___                                                                       *
 *  /   \                                                                      *
 * [ABORT]                                                                     *
 *  \___/     SCF run NOT converged. To continue the calculation regardless,   *
 *    |             please set the keyword IGNORE_CONVERGENCE_FAILURE.         *
 *  O/|                                                                        *
 * /| |                                                                        *
 * / \                                                            qs_scf.F:611 *
 *******************************************************************************


 ===== Routine Calling Stack ===== 

            3 scf_env_do_scf
            2 qs_energies
            1 CP2K

 *******************************************************************************
 *   ___                                                                       *
 *  /   \                                                                      *
 * [ABORT]                                                                     *
 *  \___/     SCF run NOT converged. To continue the calculation regardless,   *
 *    |             please set the keyword IGNORE_CONVERGENCE_FAILURE.         *
 *  O/|                                                                        *
 * /| |                                                                        *
 * / \                                                            qs_scf.F:611 *
 *******************************************************************************


 ===== Routine Calling Stack ===== 

            3 scf_env_do_scf
            2 qs_energies
            1 CP2K

 *******************************************************************************
 *   ___                                                                       *
 *  /   \                                                                      *
 * [ABORT]                                                                     *
 *  \___/     SCF run NOT converged. To continue the calculation regardless,   *
 *    |             please set the keyword IGNORE_CONVERGENCE_FAILURE.         *
 *  O/|                                                                        *
 * /| |                                                                        *
 * / \                                                            qs_scf.F:611 *
 *******************************************************************************


 ===== Routine Calling Stack ===== 

            3 scf_env_do_scf
            2 qs_energies
            1 CP2K

 *******************************************************************************
 *   ___                                                                       *
 *  /   \                                                                      *
 * [ABORT]                                                                     *
 *  \___/     SCF run NOT converged. To continue the calculation regardless,   *
 *    |             please set the keyword IGNORE_CONVERGENCE_FAILURE.         *
 *  O/|                                                                        *
 * /| |                                                                        *
 * / \                                                            qs_scf.F:611 *
 *******************************************************************************


 ===== Routine Calling Stack ===== 

            3 scf_env_do_scf
            2 qs_energies
            1 CP2K

 *******************************************************************************
 *   ___                                                                       *
 *  /   \                                                                      *
 * [ABORT]                                                                     *
 *  \___/     SCF run NOT converged. To continue the calculation regardless,   *
 *    |             please set the keyword IGNORE_CONVERGENCE_FAILURE.         *
 *  O/|                                                                        *
 * /| |                                                                        *
 * / \                                                            qs_scf.F:611 *
 *******************************************************************************


 ===== Routine Calling Stack ===== 

            3 scf_env_do_scf
            2 qs_energies
            1 CP2K

 *******************************************************************************
 *   ___                                                                       *
 *  /   \                                                                      *
 * [ABORT]                                                                     *
 *  \___/     SCF run NOT converged. To continue the calculation regardless,   *
 *    |             please set the keyword IGNORE_CONVERGENCE_FAILURE.         *
 *  O/|                                                                        *
 * /| |                                                                        *
 * / \                                                            qs_scf.F:611 *
 *******************************************************************************


 ===== Routine Calling Stack ===== 

            3 scf_env_do_scf
            2 qs_energies
            1 CP2K
