 DBCSR| CPU Multiplication driver                                           BLAS (U)
 DBCSR| Multrec recursion limit                                              512 (U)
 DBCSR| Multiplication stack size                                           1000 (D)
 DBCSR| Maximum elements for images                                    UNLIMITED (U)
 DBCSR| Multiplicative factor virtual images                                   1 (U)
 DBCSR| Use multiplication densification                                       T (D)
 DBCSR| Multiplication size stacks                                             3 (U)
 DBCSR| Use memory pool for CPU allocation                                     F (U)
 DBCSR| Number of 3D layers                                               SINGLE (U)
 DBCSR| Use MPI memory allocation                                              F (U)
 DBCSR| Use RMA algorithm                                                      F (U)
 DBCSR| Use Communication thread                                               T (U)
 DBCSR| Communication thread load                                             75 (D)
 DBCSR| MPI: My process id                                                     0
 DBCSR| MPI: Number of processes                                              24
 DBCSR| OMP: Current number of threads                                         4
 DBCSR| OMP: Max number of threads                                             4
 DBCSR| Split modifier for TAS multiplication algorithm                  1.0E+00 (U)


  **** **** ******  **  PROGRAM STARTED AT               2025-03-13 10:40:36.302
 ***** ** ***  *** **   PROGRAM STARTED ON                          i01r05c04s09
 **    ****   ******    PROGRAM STARTED BY                               di38fab
 ***** **    ** ** **   PROGRAM PROCESS ID                                 91654
  **** **  *******  **  PROGRAM STARTED IN /hppfs/scratch/04/di38fab/05_MOL/W4-1
                                           1+ALK/li2/TZVP/GW+BSE/Np1

 CP2K| version string:                 CP2K version 2025.1 (Development Version)
 CP2K| source code revision number:                                  git:d2e611a
 CP2K| cp2kflags: omp libint fftw3 libxc parallel scalapack max_contr=4         
 CP2K| is freely available from                            https://www.cp2k.org/
 CP2K| Program compiled at                       Thu 06 Mar 2025 05:09:20 PM CET
 CP2K| Program compiled on                                               login02
 CP2K| Program compiled for                                        Supermuc-foss
 CP2K| Data directory path                  /hppfs/work/pn36zo/di38fab/cp2k/data
 CP2K| Input file name                                                    GW.inp

 GLOBAL| Force Environment number                                              1
 GLOBAL| Basis set file name            /hppfs/scratch/04/di38fab/04_TMD/BASIS_A
 GLOBAL| Potential file name            /hppfs/work/pn36zo/di38fab/cp2k/data/ALL
 GLOBAL| MM Potential file name                                     MM_POTENTIAL
 GLOBAL| Coordinate file name                                      __STD_INPUT__
 GLOBAL| Method name                                                        CP2K
 GLOBAL| Project name                                                       MoS2
 GLOBAL| Run type                                                         ENERGY
 GLOBAL| FFT library                                                       FFTW3
 GLOBAL| Diagonalization library                                       ScaLAPACK
 GLOBAL| DGEMM library                                                      BLAS
 GLOBAL| Orthonormality check for eigenvectors                          DISABLED
 GLOBAL| Matrix multiplication library                                 ScaLAPACK
 GLOBAL| All-to-all communication in single precision                          F
 GLOBAL| FFTs using library dependent lengths                                  F
 GLOBAL| Grid backend                                                       AUTO
 GLOBAL| Global print level                                               MEDIUM
 GLOBAL| MPI I/O enabled                                                       T
 GLOBAL| Total number of message passing processes                            24
 GLOBAL| Number of threads for this process                                    4
 GLOBAL| This output is from process                                           0
 GLOBAL| OpenMP stack size per thread (OMP_STACKSIZE)                    default
 GLOBAL| CPU model name             Intel(R) Xeon(R) Platinum 8174 CPU @ 3.10GHz

 MEMORY| system memory details [Kb]
 MEMORY|                        rank 0           min           max       average
 MEMORY| MemTotal             98436664      98436660      98436664      98436662
 MEMORY| MemFree              83804080      83804080      84062840      83933460
 MEMORY| Buffers                     0             0             0             0
 MEMORY| Cached                2417732       2377148       2417732       2397440
 MEMORY| Slab                  1266740       1222968       1266740       1244854
 MEMORY| SReclaimable           281360        271032        281360        276196
 MEMORY| MemLikelyFree        86503172      86503172      86711020      86607096


 *** Fundamental physical constants (SI units) ***

 *** Literature: B. J. Mohr and B. N. Taylor,
 ***             CODATA recommended values of the fundamental physical
 ***             constants: 2006, Web Version 5.1
 ***             http://physics.nist.gov/constants

 Speed of light in vacuum [m/s]                             2.99792458000000E+08
 Magnetic constant or permeability of vacuum [N/A**2]       1.25663706143592E-06
 Electric constant or permittivity of vacuum [F/m]          8.85418781762039E-12
 Planck constant (h) [J*s]                                  6.62606896000000E-34
 Planck constant (h-bar) [J*s]                              1.05457162825177E-34
 Elementary charge [C]                                      1.60217648700000E-19
 Electron mass [kg]                                         9.10938215000000E-31
 Electron g factor [ ]                                     -2.00231930436220E+00
 Proton mass [kg]                                           1.67262163700000E-27
 Fine-structure constant                                    7.29735253760000E-03
 Rydberg constant [1/m]                                     1.09737315685270E+07
 Avogadro constant [1/mol]                                  6.02214179000000E+23
 Boltzmann constant [J/K]                                   1.38065040000000E-23
 Atomic mass unit [kg]                                      1.66053878200000E-27
 Bohr radius [m]                                            5.29177208590000E-11

 *** Conversion factors ***

 [u] -> [a.u.]                                              1.82288848426455E+03
 [Angstrom] -> [Bohr] = [a.u.]                              1.88972613288564E+00
 [a.u.] = [Bohr] -> [Angstrom]                              5.29177208590000E-01
 [a.u.] -> [s]                                              2.41888432650478E-17
 [a.u.] -> [fs]                                             2.41888432650478E-02
 [a.u.] -> [J]                                              4.35974393937059E-18
 [a.u.] -> [N]                                              8.23872205491840E-08
 [a.u.] -> [K]                                              3.15774647902944E+05
 [a.u.] -> [kJ/mol]                                         2.62549961709828E+03
 [a.u.] -> [kcal/mol]                                       6.27509468713739E+02
 [a.u.] -> [Pa]                                             2.94210107994716E+13
 [a.u.] -> [bar]                                            2.94210107994716E+08
 [a.u.] -> [atm]                                            2.90362800883016E+08
 [a.u.] -> [eV]                                             2.72113838565563E+01
 [a.u.] -> [Hz]                                             6.57968392072181E+15
 [a.u.] -> [1/cm] (wave numbers)                            2.19474631370540E+05
 [a.u./Bohr**2] -> [1/cm]                                   5.14048714338585E+03
 

 CELL_TOP| Volume [angstrom^3]:                                     27000.000000
 CELL_TOP| Vector a [angstrom    30.000     0.000     0.000   |a| =    30.000000
 CELL_TOP| Vector b [angstrom     0.000    30.000     0.000   |b| =    30.000000
 CELL_TOP| Vector c [angstrom     0.000     0.000    30.000   |c| =    30.000000
 CELL_TOP| Angle (b,c), alpha [degree]:                                90.000000
 CELL_TOP| Angle (a,c), beta  [degree]:                                90.000000
 CELL_TOP| Angle (a,b), gamma [degree]:                                90.000000
 CELL_TOP| Numerically orthorhombic:                                         YES
 CELL_TOP| Periodicity                                                      NONE

 GENERATE|  Preliminary Number of Bonds generated:                             0
 GENERATE|  Achieved consistency in connectivity generation.

 CELL| Volume [angstrom^3]:                                         27000.000000
 CELL| Vector a [angstrom]:      30.000     0.000     0.000   |a| =    30.000000
 CELL| Vector b [angstrom]:       0.000    30.000     0.000   |b| =    30.000000
 CELL| Vector c [angstrom]:       0.000     0.000    30.000   |c| =    30.000000
 CELL| Angle (b,c), alpha [degree]:                                    90.000000
 CELL| Angle (a,c), beta  [degree]:                                    90.000000
 CELL| Angle (a,b), gamma [degree]:                                    90.000000
 CELL| Numerically orthorhombic:                                             YES
 CELL| Periodicity                                                          NONE

 CELL_REF| Volume [angstrom^3]:                                     27000.000000
 CELL_REF| Vector a [angstrom    30.000     0.000     0.000   |a| =    30.000000
 CELL_REF| Vector b [angstrom     0.000    30.000     0.000   |b| =    30.000000
 CELL_REF| Vector c [angstrom     0.000     0.000    30.000   |c| =    30.000000
 CELL_REF| Angle (b,c), alpha [degree]:                                90.000000
 CELL_REF| Angle (a,c), beta  [degree]:                                90.000000
 CELL_REF| Angle (a,b), gamma [degree]:                                90.000000
 CELL_REF| Numerically orthorhombic:                                         YES
 CELL_REF| Periodicity                                                      NONE

 *******************************************************************************
 *******************************************************************************
 **                                                                           **
 **     #####                         ##              ##                      **
 **    ##   ##            ##          ##              ##                      **
 **   ##     ##                       ##            ######                    **
 **   ##     ##  ##   ##  ##   #####  ##  ##   ####   ##    #####    #####    **
 **   ##     ##  ##   ##  ##  ##      ## ##   ##      ##   ##   ##  ##   ##   **
 **   ##  ## ##  ##   ##  ##  ##      ####     ###    ##   ######   ######    **
 **    ##  ###   ##   ##  ##  ##      ## ##      ##   ##   ##       ##        **
 **     #######   #####   ##   #####  ##  ##  ####    ##    #####   ##        **
 **           ##                                                    ##        **
 **                                                                           **
 **                                                ... make the atoms dance   **
 **                                                                           **
 **            Copyright (C) by CP2K developers group (2000-2025)             **
 **                      J. Chem. Phys. 152, 194103 (2020)                    **
 **                                                                           **
 *******************************************************************************

 DFT| Spin restricted Kohn-Sham (RKS) calculation                            RKS
 DFT| Multiplicity                                                             1
 DFT| Number of spin states                                                    1
 DFT| Charge                                                                   0
 DFT| Self-interaction correction (SIC)                                       NO
 DFT| Cutoffs: density                                              1.000000E-10
 DFT|          gradient                                             1.000000E-10
 DFT|          tau                                                  1.000000E-10
 DFT|          cutoff_smoothing_range                               0.000000E+00
 DFT| XC density smoothing                                                  NONE
 DFT| XC derivatives                                                          PW

 FUNCTIONAL| PBE:
 FUNCTIONAL| J.P.Perdew, K.Burke, M.Ernzerhof, Phys. Rev. Letter, vol. 77, n 18,
 FUNCTIONAL|  pp. 3865-3868, (1996)sx=0.750sc=1.000{spin unpolarized}           


 QS| Method:                                                                GAPW
 QS| Density plane wave grid type                        NON-SPHERICAL FULLSPACE
 QS| Number of grid levels:                                                    4
 QS| Density cutoff [a.u.]:                                                250.0
 QS| Multi grid cutoff [a.u.]: 1) grid level                               250.0
 QS|                           2) grid level                                83.3
 QS|                           3) grid level                                27.8
 QS|                           4) grid level                                 9.3
 QS| Grid level progression factor:                                          3.0
 QS| Relative density cutoff [a.u.]:                                        50.0
 QS| Interaction thresholds: eps_pgf_orb:                                1.0E-12
 QS|                         eps_filter_matrix:                          0.0E+00
 QS|                         eps_core_charge:                            1.0E-14
 QS|                         eps_rho_gspace:                             1.0E-12
 QS|                         eps_rho_rspace:                             1.0E-12
 QS|                         eps_gvg_rspace:                             1.0E-06
 QS|                         eps_ppl:                                    1.0E-02
 QS|                         eps_ppnl:                                   1.0E-08
 QS| GAPW|      One center basis from orbital basis primitives
 QS| GAPW|                   eps_fit:                                    1.0E-04
 QS| GAPW|                   eps_iso:                                    1.0E-12
 QS| GAPW|                   eps_svd:                                    1.0E-08
 QS| GAPW|                   eps_cpc:                                    1.0E-12
 QS| GAPW|   atom-r-grid: quadrature:                                     GC_LOG
 QS| GAPW|      atom-s-grid:  max l :                                          6
 QS| GAPW|      max_l_rho0 :                                                   2


 ATOMIC KIND INFORMATION

  1. Atomic kind: li                                    Number of atoms:       2

     Orbital Basis Set                                        aug-TZVP-MOLOPT-ae

       Number of orbital shell sets:                                           2
       Number of orbital shells:                                              13
       Number of primitive Cartesian functions:                               11
       Number of Cartesian basis functions:                                   40
       Number of spherical basis functions:                                   35
       Norm type:                                                              2

       Normalised Cartesian orbitals:

                        Set   Shell   Orbital            Exponent    Coefficient

                          1       1    1s                0.024646      -0.078105
                                                         0.071007       0.213026
                                                         0.237636      -0.232469
                                                         0.680928       0.544799
                                                         1.933558      -1.060981

                          1       2    2s                0.024646       0.006228
                                                         0.071007       0.022458
                                                         0.237636       0.022101
                                                         0.680928       0.156290
                                                         1.933558       0.593777

                          1       3    3s                0.024646       0.023237
                                                         0.071007       0.033037
                                                         0.237636       0.065312
                                                         0.680928       0.047064
                                                         1.933558      -0.462606

                          1       4    4s                0.024646       0.005162
                                                         0.071007       0.074011
                                                         0.237636      -0.047989
                                                         0.680928      -0.668780
                                                         1.933558       0.448387

                          1       5    5s                0.024646       0.052262
                                                         0.071007      -0.012156
                                                         0.237636      -0.070069
                                                         0.680928       0.011411
                                                         1.933558       0.006013

                          1       6    2px               0.024646       0.000822
                                                         0.071007      -0.000886
                                                         0.237636       0.077898
                                                         0.680928      -1.218050
                                                         1.933558       5.053657
                          1       6    2py               0.024646       0.000822
                                                         0.071007      -0.000886
                                                         0.237636       0.077898
                                                         0.680928      -1.218050
                                                         1.933558       5.053657
                          1       6    2pz               0.024646       0.000822
                                                         0.071007      -0.000886
                                                         0.237636       0.077898
                                                         0.680928      -1.218050
                                                         1.933558       5.053657

                          1       7    3px               0.024646      -0.010239
                                                         0.071007      -0.021942
                                                         0.237636       0.080413
                                                         0.680928       0.093238
                                                         1.933558       0.147169
                          1       7    3py               0.024646      -0.010239
                                                         0.071007      -0.021942
                                                         0.237636       0.080413
                                                         0.680928       0.093238
                                                         1.933558       0.147169
                          1       7    3pz               0.024646      -0.010239
                                                         0.071007      -0.021942
                                                         0.237636       0.080413
                                                         0.680928       0.093238
                                                         1.933558       0.147169

                          1       8    4px               0.024646       0.000237
                                                         0.071007       0.023413
                                                         0.237636       0.129113
                                                         0.680928       0.121719
                                                         1.933558       0.036550
                          1       8    4py               0.024646       0.000237
                                                         0.071007       0.023413
                                                         0.237636       0.129113
                                                         0.680928       0.121719
                                                         1.933558       0.036550
                          1       8    4pz               0.024646       0.000237
                                                         0.071007       0.023413
                                                         0.237636       0.129113
                                                         0.680928       0.121719
                                                         1.933558       0.036550

                          1       9    5px               0.024646      -0.012357
                                                         0.071007       0.058147
                                                         0.237636       0.060042
                                                         0.680928       0.050984
                                                         1.933558       0.171511
                          1       9    5py               0.024646      -0.012357
                                                         0.071007       0.058147
                                                         0.237636       0.060042
                                                         0.680928       0.050984
                                                         1.933558       0.171511
                          1       9    5pz               0.024646      -0.012357
                                                         0.071007       0.058147
                                                         0.237636       0.060042
                                                         0.680928       0.050984
                                                         1.933558       0.171511

                          1      10    3dx2              0.024646      -0.000157
                                                         0.071007       0.006388
                                                         0.237636       0.091398
                                                         0.680928       0.100225
                                                         1.933558      -0.256537
                          1      10    3dxy              0.024646      -0.000271
                                                         0.071007       0.011064
                                                         0.237636       0.158306
                                                         0.680928       0.173596
                                                         1.933558      -0.444335
                          1      10    3dxz              0.024646      -0.000271
                                                         0.071007       0.011064
                                                         0.237636       0.158306
                                                         0.680928       0.173596
                                                         1.933558      -0.444335
                          1      10    3dy2              0.024646      -0.000157
                                                         0.071007       0.006388
                                                         0.237636       0.091398
                                                         0.680928       0.100225
                                                         1.933558      -0.256537
                          1      10    3dyz              0.024646      -0.000271
                                                         0.071007       0.011064
                                                         0.237636       0.158306
                                                         0.680928       0.173596
                                                         1.933558      -0.444335
                          1      10    3dz2              0.024646      -0.000157
                                                         0.071007       0.006388
                                                         0.237636       0.091398
                                                         0.680928       0.100225
                                                         1.933558      -0.256537

                          1      11    4dx2              0.024646      -0.000002
                                                         0.071007       0.016088
                                                         0.237636       0.000035
                                                         0.680928      -0.002278
                                                         1.933558      -0.014809
                          1      11    4dxy              0.024646      -0.000003
                                                         0.071007       0.027866
                                                         0.237636       0.000061
                                                         0.680928      -0.003946
                                                         1.933558      -0.025650
                          1      11    4dxz              0.024646      -0.000003
                                                         0.071007       0.027866
                                                         0.237636       0.000061
                                                         0.680928      -0.003946
                                                         1.933558      -0.025650
                          1      11    4dy2              0.024646      -0.000002
                                                         0.071007       0.016088
                                                         0.237636       0.000035
                                                         0.680928      -0.002278
                                                         1.933558      -0.014809
                          1      11    4dyz              0.024646      -0.000003
                                                         0.071007       0.027866
                                                         0.237636       0.000061
                                                         0.680928      -0.003946
                                                         1.933558      -0.025650
                          1      11    4dz2              0.024646      -0.000002
                                                         0.071007       0.016088
                                                         0.237636       0.000035
                                                         0.680928      -0.002278
                                                         1.933558      -0.014809

                          1      12    4fx3              0.024646      -0.000304
                                                         0.071007       0.004674
                                                         0.237636      -0.004905
                                                         0.680928      -0.023032
                                                         1.933558       0.088408
                          1      12    4fx2y             0.024646      -0.000679
                                                         0.071007       0.010451
                                                         0.237636      -0.010968
                                                         0.680928      -0.051501
                                                         1.933558       0.197686
                          1      12    4fx2z             0.024646      -0.000679
                                                         0.071007       0.010451
                                                         0.237636      -0.010968
                                                         0.680928      -0.051501
                                                         1.933558       0.197686
                          1      12    4fxy2             0.024646      -0.000679
                                                         0.071007       0.010451
                                                         0.237636      -0.010968
                                                         0.680928      -0.051501
                                                         1.933558       0.197686
                          1      12    4fxyz             0.024646      -0.001176
                                                         0.071007       0.018102
                                                         0.237636      -0.018996
                                                         0.680928      -0.089202
                                                         1.933558       0.342401
                          1      12    4fxz2             0.024646      -0.000679
                                                         0.071007       0.010451
                                                         0.237636      -0.010968
                                                         0.680928      -0.051501
                                                         1.933558       0.197686
                          1      12    4fy3              0.024646      -0.000304
                                                         0.071007       0.004674
                                                         0.237636      -0.004905
                                                         0.680928      -0.023032
                                                         1.933558       0.088408
                          1      12    4fy2z             0.024646      -0.000679
                                                         0.071007       0.010451
                                                         0.237636      -0.010968
                                                         0.680928      -0.051501
                                                         1.933558       0.197686
                          1      12    4fyz2             0.024646      -0.000679
                                                         0.071007       0.010451
                                                         0.237636      -0.010968
                                                         0.680928      -0.051501
                                                         1.933558       0.197686
                          1      12    4fz3              0.024646      -0.000304
                                                         0.071007       0.004674
                                                         0.237636      -0.004905
                                                         0.680928      -0.023032
                                                         1.933558       0.088408

                          2       1    1s             6269.059024       0.195526
                                                       940.419254       0.355467
                                                       214.089215       0.613400
                                                        60.725519       1.001660
                                                        18.086742       1.629632
                                                         5.657040       1.936268

     RI Auxiliary Basis Set             RI_aug-TZVP-MOLOPT-ae_N_RI_018_s_p_d_f_g

       Number of orbital shell sets:                                           8
       Number of orbital shells:                                               8
       Number of primitive Cartesian functions:                                8
       Number of Cartesian basis functions:                                   19
       Number of spherical basis functions:                                   18
       Norm type:                                                              2

       Normalised Cartesian orbitals:

                        Set   Shell   Orbital            Exponent    Coefficient

                          1       1    5px               0.417995       0.479075
                          1       1    5py               0.417995       0.479075
                          1       1    5pz               0.417995       0.479075

                          2       1    1s                0.517302       0.434728

                          3       1    8dx2              0.912537       1.402323
                          3       1    8dxy              0.912537       2.428894
                          3       1    8dxz              0.912537       2.428894
                          3       1    8dy2              0.912537       1.402323
                          3       1    8dyz              0.912537       2.428894
                          3       1    8dz2              0.912537       1.402323

                          4       1    6px               1.315350       2.007898
                          4       1    6py               1.315350       2.007898
                          4       1    6pz               1.315350       2.007898

                          5       1    2s                1.682708       1.052972

                          6       1    3s                4.337811       2.142215

                          7       1    7px               4.421655       9.139472
                          7       1    7py               4.421655       9.139472
                          7       1    7pz               4.421655       9.139472

                          8       1    4s               16.469647       5.826709

       Atomic covalent radius [Angstrom]:                                  1.230

       Atomic van der Waals radius [Angstrom]:                             1.820

     The atoms of this atomic kind are PAW atoms (GAPW):
       Hard Gaussian function radius:                                      1.512
       Rho0 radius:                                                        1.512
       Maximum GTO radius used for PAW projector construction:            24.566

     GAPW Soft Basis Set                                 aug-TZVP-MOLOPT-ae_soft

       Number of orbital shell sets:                                           2
       Number of orbital shells:                                              13
       Number of primitive Cartesian functions:                                5
       Number of Cartesian basis functions:                                   40
       Number of spherical basis functions:                                   35
       Norm type:                                                              2

       Normalised Cartesian orbitals:

                        Set   Shell   Orbital            Exponent    Coefficient

                          1       1    1s                0.024646      -0.078105
                                                         0.071007       0.213026
                                                         0.237636      -0.232469
                                                         0.680928       0.544799
                                                         1.933558      -1.060981

                          1       2    2s                0.024646       0.006228
                                                         0.071007       0.022458
                                                         0.237636       0.022101
                                                         0.680928       0.156290
                                                         1.933558       0.593777

                          1       3    3s                0.024646       0.023237
                                                         0.071007       0.033037
                                                         0.237636       0.065312
                                                         0.680928       0.047064
                                                         1.933558      -0.462606

                          1       4    4s                0.024646       0.005162
                                                         0.071007       0.074011
                                                         0.237636      -0.047989
                                                         0.680928      -0.668780
                                                         1.933558       0.448387

                          1       5    5s                0.024646       0.052262
                                                         0.071007      -0.012156
                                                         0.237636      -0.070069
                                                         0.680928       0.011411
                                                         1.933558       0.006013

                          1       6    2px               0.024646       0.000822
                                                         0.071007      -0.000886
                                                         0.237636       0.077898
                                                         0.680928      -1.218050
                                                         1.933558       5.053657
                          1       6    2py               0.024646       0.000822
                                                         0.071007      -0.000886
                                                         0.237636       0.077898
                                                         0.680928      -1.218050
                                                         1.933558       5.053657
                          1       6    2pz               0.024646       0.000822
                                                         0.071007      -0.000886
                                                         0.237636       0.077898
                                                         0.680928      -1.218050
                                                         1.933558       5.053657

                          1       7    3px               0.024646      -0.010239
                                                         0.071007      -0.021942
                                                         0.237636       0.080413
                                                         0.680928       0.093238
                                                         1.933558       0.147169
                          1       7    3py               0.024646      -0.010239
                                                         0.071007      -0.021942
                                                         0.237636       0.080413
                                                         0.680928       0.093238
                                                         1.933558       0.147169
                          1       7    3pz               0.024646      -0.010239
                                                         0.071007      -0.021942
                                                         0.237636       0.080413
                                                         0.680928       0.093238
                                                         1.933558       0.147169

                          1       8    4px               0.024646       0.000237
                                                         0.071007       0.023413
                                                         0.237636       0.129113
                                                         0.680928       0.121719
                                                         1.933558       0.036550
                          1       8    4py               0.024646       0.000237
                                                         0.071007       0.023413
                                                         0.237636       0.129113
                                                         0.680928       0.121719
                                                         1.933558       0.036550
                          1       8    4pz               0.024646       0.000237
                                                         0.071007       0.023413
                                                         0.237636       0.129113
                                                         0.680928       0.121719
                                                         1.933558       0.036550

                          1       9    5px               0.024646      -0.012357
                                                         0.071007       0.058147
                                                         0.237636       0.060042
                                                         0.680928       0.050984
                                                         1.933558       0.171511
                          1       9    5py               0.024646      -0.012357
                                                         0.071007       0.058147
                                                         0.237636       0.060042
                                                         0.680928       0.050984
                                                         1.933558       0.171511
                          1       9    5pz               0.024646      -0.012357
                                                         0.071007       0.058147
                                                         0.237636       0.060042
                                                         0.680928       0.050984
                                                         1.933558       0.171511

                          1      10    3dx2              0.024646      -0.000157
                                                         0.071007       0.006388
                                                         0.237636       0.091398
                                                         0.680928       0.100225
                                                         1.933558      -0.256537
                          1      10    3dxy              0.024646      -0.000271
                                                         0.071007       0.011064
                                                         0.237636       0.158306
                                                         0.680928       0.173596
                                                         1.933558      -0.444335
                          1      10    3dxz              0.024646      -0.000271
                                                         0.071007       0.011064
                                                         0.237636       0.158306
                                                         0.680928       0.173596
                                                         1.933558      -0.444335
                          1      10    3dy2              0.024646      -0.000157
                                                         0.071007       0.006388
                                                         0.237636       0.091398
                                                         0.680928       0.100225
                                                         1.933558      -0.256537
                          1      10    3dyz              0.024646      -0.000271
                                                         0.071007       0.011064
                                                         0.237636       0.158306
                                                         0.680928       0.173596
                                                         1.933558      -0.444335
                          1      10    3dz2              0.024646      -0.000157
                                                         0.071007       0.006388
                                                         0.237636       0.091398
                                                         0.680928       0.100225
                                                         1.933558      -0.256537

                          1      11    4dx2              0.024646      -0.000002
                                                         0.071007       0.016088
                                                         0.237636       0.000035
                                                         0.680928      -0.002278
                                                         1.933558      -0.014809
                          1      11    4dxy              0.024646      -0.000003
                                                         0.071007       0.027866
                                                         0.237636       0.000061
                                                         0.680928      -0.003946
                                                         1.933558      -0.025650
                          1      11    4dxz              0.024646      -0.000003
                                                         0.071007       0.027866
                                                         0.237636       0.000061
                                                         0.680928      -0.003946
                                                         1.933558      -0.025650
                          1      11    4dy2              0.024646      -0.000002
                                                         0.071007       0.016088
                                                         0.237636       0.000035
                                                         0.680928      -0.002278
                                                         1.933558      -0.014809
                          1      11    4dyz              0.024646      -0.000003
                                                         0.071007       0.027866
                                                         0.237636       0.000061
                                                         0.680928      -0.003946
                                                         1.933558      -0.025650
                          1      11    4dz2              0.024646      -0.000002
                                                         0.071007       0.016088
                                                         0.237636       0.000035
                                                         0.680928      -0.002278
                                                         1.933558      -0.014809

                          1      12    4fx3              0.024646      -0.000304
                                                         0.071007       0.004674
                                                         0.237636      -0.004905
                                                         0.680928      -0.023032
                                                         1.933558       0.088408
                          1      12    4fx2y             0.024646      -0.000679
                                                         0.071007       0.010451
                                                         0.237636      -0.010968
                                                         0.680928      -0.051501
                                                         1.933558       0.197686
                          1      12    4fx2z             0.024646      -0.000679
                                                         0.071007       0.010451
                                                         0.237636      -0.010968
                                                         0.680928      -0.051501
                                                         1.933558       0.197686
                          1      12    4fxy2             0.024646      -0.000679
                                                         0.071007       0.010451
                                                         0.237636      -0.010968
                                                         0.680928      -0.051501
                                                         1.933558       0.197686
                          1      12    4fxyz             0.024646      -0.001176
                                                         0.071007       0.018102
                                                         0.237636      -0.018996
                                                         0.680928      -0.089202
                                                         1.933558       0.342401
                          1      12    4fxz2             0.024646      -0.000679
                                                         0.071007       0.010451
                                                         0.237636      -0.010968
                                                         0.680928      -0.051501
                                                         1.933558       0.197686
                          1      12    4fy3              0.024646      -0.000304
                                                         0.071007       0.004674
                                                         0.237636      -0.004905
                                                         0.680928      -0.023032
                                                         1.933558       0.088408
                          1      12    4fy2z             0.024646      -0.000679
                                                         0.071007       0.010451
                                                         0.237636      -0.010968
                                                         0.680928      -0.051501
                                                         1.933558       0.197686
                          1      12    4fyz2             0.024646      -0.000679
                                                         0.071007       0.010451
                                                         0.237636      -0.010968
                                                         0.680928      -0.051501
                                                         1.933558       0.197686
                          1      12    4fz3              0.024646      -0.000304
                                                         0.071007       0.004674
                                                         0.237636      -0.004905
                                                         0.680928      -0.023032
                                                         1.933558       0.088408

                          2       1    1s         

     AE Potential information for                                            ALL

       Description:                                       All-electron potential
                                          Krack, Parrinello, PCCP 2, 2105 (2000)

       Gaussian exponent of the core charge distribution:               3.125000
       Electronic configuration (s p d ...):                           3   0   0


 MOLECULE KIND INFORMATION


 All atoms are their own molecule, skipping detailed information


 TOTAL NUMBERS AND MAXIMUM NUMBERS

  Total number of            - Atomic kinds:                                   1
                             - Atoms:                                          2
                             - Shell sets:                                     4
                             - Shells:                                        26
                             - Primitive Cartesian functions:                 22
                             - Cartesian basis functions:                     80
                             - Spherical basis functions:                     70

  Maximum angular momentum of the orbital basis functions:                     3


 MODULE QUICKSTEP: ATOMIC COORDINATES IN ANGSTROM

   Atom Kind Element         X             Y             Z       Z(eff)     Mass
      1    1 li    3     15.000000     15.000000     16.394718   3.0000   6.9410
      2    1 li    3     15.000000     15.000000     13.605282   3.0000   6.9410



 SCF PARAMETERS         Density guess:                                    ATOMIC
                        --------------------------------------------------------
                        max_scf:                                             500
                        max_scf_history:                                       0
                        max_diis:                                              4
                        --------------------------------------------------------
                        eps_scf:                                        1.00E-06
                        eps_scf_history:                                0.00E+00
                        eps_diis:                                       1.00E-01
                        eps_eigval:                                     1.00E-05
                        --------------------------------------------------------
                        level_shift [a.u.]:                             0.000000
                        added MOs                                        67    0
                        --------------------------------------------------------
                        Mixing method:                            BROYDEN_MIXING
                                                charge density mixing in g-space
                        --------------------------------------------------------
                        Smear method:                                FERMI_DIRAC
                        Electronic temperature [K]:                        300.0
                        Electronic temperature [a.u.]:                  9.50E-04
                        Accuracy threshold:                             1.00E-10
                        --------------------------------------------------------
                        No outer SCF

 PW_GRID| Information for grid number                                          1
 PW_GRID| Grid distributed over                                    24 processors
 PW_GRID| Real space group dimensions                                    24    1
 PW_GRID| the grid is blocked:                                                NO
 PW_GRID| Cutoff [a.u.]                                                    250.0
 PW_GRID| spherical cutoff:                                                   NO
 PW_GRID|   Bounds   1           -202     202                Points:         405
 PW_GRID|   Bounds   2           -202     202                Points:         405
 PW_GRID|   Bounds   3           -202     202                Points:         405
 PW_GRID| Volume element (a.u.^3)  0.2743E-02     Volume (a.u.^3)    182205.0337
 PW_GRID| Grid span                                                    FULLSPACE
 PW_GRID|   Distribution                         Average         Max         Min
 PW_GRID|   G-Vectors                          2767921.9     2768175     2767770
 PW_GRID|   G-Rays                                6834.4        6835        6834
 PW_GRID|   Real Space Points                  2767921.9     2788425     2624400

 PW_GRID| Information for grid number                                          2
 PW_GRID| Number of the reference grid                                         1
 PW_GRID| Grid distributed over                                    24 processors
 PW_GRID| Real space group dimensions                                    24    1
 PW_GRID| the grid is blocked:                                                NO
 PW_GRID| Cutoff [a.u.]                                                     83.3
 PW_GRID| spherical cutoff:                                                   NO
 PW_GRID|   Bounds   1           -120     119                Points:         240
 PW_GRID|   Bounds   2           -120     119                Points:         240
 PW_GRID|   Bounds   3           -120     119                Points:         240
 PW_GRID| Volume element (a.u.^3)  0.1318E-01     Volume (a.u.^3)    182205.0337
 PW_GRID| Grid span                                                    FULLSPACE
 PW_GRID|   Distribution                         Average         Max         Min
 PW_GRID|   G-Vectors                           576000.0      576240      575760
 PW_GRID|   G-Rays                                2400.0        2401        2399
 PW_GRID|   Real Space Points                   576000.0      576000      576000

 PW_GRID| Information for grid number                                          3
 PW_GRID| Number of the reference grid                                         1
 PW_GRID| Grid distributed over                                    24 processors
 PW_GRID| Real space group dimensions                                    24    1
 PW_GRID| the grid is blocked:                                                NO
 PW_GRID| Cutoff [a.u.]                                                     27.8
 PW_GRID| spherical cutoff:                                                   NO
 PW_GRID|   Bounds   1            -67      67                Points:         135
 PW_GRID|   Bounds   2            -67      67                Points:         135
 PW_GRID|   Bounds   3            -67      67                Points:         135
 PW_GRID| Volume element (a.u.^3)  0.7406E-01     Volume (a.u.^3)    182205.0337
 PW_GRID| Grid span                                                    FULLSPACE
 PW_GRID|   Distribution                         Average         Max         Min
 PW_GRID|   G-Vectors                           102515.6      102735      102330
 PW_GRID|   G-Rays                                 759.4         761         758
 PW_GRID|   Real Space Points                   102515.6      109350       91125

 PW_GRID| Information for grid number                                          4
 PW_GRID| Number of the reference grid                                         1
 PW_GRID| Grid distributed over                                    24 processors
 PW_GRID| Real space group dimensions                                    24    1
 PW_GRID| the grid is blocked:                                                NO
 PW_GRID| Cutoff [a.u.]                                                      9.3
 PW_GRID| spherical cutoff:                                                   NO
 PW_GRID|   Bounds   1            -40      39                Points:          80
 PW_GRID|   Bounds   2            -40      39                Points:          80
 PW_GRID|   Bounds   3            -40      39                Points:          80
 PW_GRID| Volume element (a.u.^3)  0.3559         Volume (a.u.^3)    182205.0337
 PW_GRID| Grid span                                                    FULLSPACE
 PW_GRID|   Distribution                         Average         Max         Min
 PW_GRID|   G-Vectors                            21333.3       21360       21280
 PW_GRID|   G-Rays                                 266.7         267         266
 PW_GRID|   Real Space Points                    21333.3       25600       19200

 POISSON| Solver                                                         WAVELET
 POISSON| Wavelet| Scaling function                                           40
 POISSON| Periodicity                                                       NONE

 RS_GRID| Information for grid number                                          1
 RS_GRID|   Bounds   1           -202     202                Points:         405
 RS_GRID|   Bounds   2           -202     202                Points:         405
 RS_GRID|   Bounds   3           -202     202                Points:         405
 RS_GRID| Real space distribution over                                  4 groups
 RS_GRID| Real space distribution along direction                              2
 RS_GRID| Border size                                                         34
 RS_GRID| Real space distribution over                                  6 groups
 RS_GRID| Real space distribution along direction                              3
 RS_GRID| Border size                                                         34
 RS_GRID|   Distribution                         Average         Max         Min
 RS_GRID|   Planes                                 169.2         170         169
 RS_GRID|   Distribution                         Average         Max         Min
 RS_GRID|   Planes                                 135.5         136         135

 RS_GRID| Information for grid number                                          2
 RS_GRID|   Bounds   1           -120     119                Points:         240
 RS_GRID|   Bounds   2           -120     119                Points:         240
 RS_GRID|   Bounds   3           -120     119                Points:         240
 RS_GRID| Real space distribution over                                  4 groups
 RS_GRID| Real space distribution along direction                              2
 RS_GRID| Border size                                                         35
 RS_GRID| Real space distribution over                                  6 groups
 RS_GRID| Real space distribution along direction                              3
 RS_GRID| Border size                                                         35
 RS_GRID|   Distribution                         Average         Max         Min
 RS_GRID|   Planes                                 130.0         130         130
 RS_GRID|   Distribution                         Average         Max         Min
 RS_GRID|   Planes                                 110.0         110         110

 RS_GRID| Information for grid number                                          3
 RS_GRID|   Bounds   1            -67      67                Points:         135
 RS_GRID|   Bounds   2            -67      67                Points:         135
 RS_GRID|   Bounds   3            -67      67                Points:         135
 RS_GRID| Real space fully replicated
 RS_GRID| Group size                                                           1

 RS_GRID| Information for grid number                                          4
 RS_GRID|   Bounds   1            -40      39                Points:          80
 RS_GRID|   Bounds   2            -40      39                Points:          80
 RS_GRID|   Bounds   3            -40      39                Points:          80
 RS_GRID| Real space fully replicated
 RS_GRID| Group size                                                           1

  HFX_INFO| Replica ID:                                                        1
  HFX_INFO| FRACTION:                                               0.2500000000
  HFX_INFO| Interaction Potential:                                       COULOMB
  HFX_INFO| EPS_SCHWARZ:                                                 1.0E-10
  HFX_INFO| EPS_SCHWARZ_FORCES                                           1.0E-08
  HFX_INFO| EPS_STORAGE_SCALING:                                         1.0E+00
  HFX_INFO| NBINS:                                                            64
  HFX_INFO| BLOCK_SIZE:                                                        1
  HFX_INFO| Number of periodic shells considered:                           NONE
  HFX_INFO| Number of periodic cells considered:                            NONE

 
 RI-RPA| using GPW style
 

 OVERLAP MATRIX CONDITION NUMBER
 1-Norm Condition Number (Estimate)
   CN : |A|*|A^-1|:  6.287E+000 *  2.445E+003   = 1.537E+004  Log(1-CN):  4.1868
 1-Norm and 2-Norm Condition Numbers using Diagonalization
   CN : |A|*|A^-1|:  6.287E+000 *  2.445E+003   = 1.537E+004  Log(1-CN):  4.1868
   CN : max/min ev:  4.088E+000 /  5.530E-004   = 7.392E+003  Log(2-CN):  3.8688

 Number of electrons:                                                          6
 Number of occupied orbitals:                                                  3
 Number of molecular orbitals:                                                70

 Number of orbital functions:                                                 70
 Number of independent orbital functions:                                     70

 Extrapolation method: initial_guess

 Atomic guess: The first density matrix is obtained in terms of atomic orbitals
               and electronic configurations assigned to each atomic kind

 Guess for atomic kind: li

 Electronic structure
    Total number of core electrons                                          0.00
    Total number of valence electrons                                       3.00
    Total number of electrons                                               3.00
    Multiplicity                                                   not specified
    S      2.00  1.00


 *******************************************************************************
                  Iteration          Convergence                     Energy [au]
 *******************************************************************************
                          1        0.727130E-01                  -7.333563743104
                          2        0.181838E-01                  -7.334340165532
                          3        0.930532E-04                  -7.334388740739
                          4        0.345447E-04                  -7.334388771351
                          5        0.187017E-05                  -7.334388771863
                          6        0.106802E-05                  -7.334388771865
                          7        0.158779E-07                  -7.334388771867

 Energy components [Hartree]           Total Energy ::           -7.334388771867
                                        Band Energy ::           -3.862104354834
                                     Kinetic Energy ::            7.236540450148
                                   Potential Energy ::          -14.570929222015
                                      Virial (-V/T) ::            2.013521422618
                                        Core Energy ::           -9.673419580468
                                          XC Energy ::           -1.651956385151
                                     Coulomb Energy ::            3.990987193753

 Orbital energies  State     L     Occupation   Energy[a.u.]          Energy[eV]

                       1     0          2.000      -1.878224          -51.109075
                       2     0          1.000      -0.105656           -2.875054


 Total Electron Density at R=0:                                        13.265052
 Re-scaling the density matrix to get the right number of electrons
                  # Electrons              Trace(P)               Scaling factor
                            6                 6.000                        1.000


 SCF WAVEFUNCTION OPTIMIZATION

  Step     Update method      Time    Convergence         Total energy    Change
  ------------------------------------------------------------------------------

  HFX_MEM_INFO| Est. max. program size before HFX [MiB]:                    2154
  HFX_MEM_INFO| Number of cart. primitive ERI's calculated:            745955968
  HFX_MEM_INFO| Number of sph. ERI's calculated:                         8998851
  HFX_MEM_INFO| Number of sph. ERI's stored in-core:                     8998851
  HFX_MEM_INFO| Number of sph. ERI's stored on disk:                           0
  HFX_MEM_INFO| Number of sph. ERI's calculated on the fly:                    0
  HFX_MEM_INFO| Total memory consumption ERI's RAM [MiB]:                     37
  HFX_MEM_INFO| Whereof max-vals [MiB]:                                        1
  HFX_MEM_INFO| Total compression factor ERI's RAM:                         1.86
  HFX_MEM_INFO| Total memory consumption ERI's disk [MiB]:                     0
  HFX_MEM_INFO| Total compression factor ERI's disk:                        0.00
  HFX_MEM_INFO| Size of density/Fock matrix [MiB]:                             0
  HFX_MEM_INFO| Size of buffers [MiB]:                                        40
  HFX_MEM_INFO| Est. max. program size after HFX  [MiB]:                    2720

     1 NoMix/Diag. 0.10E+00   22.6     0.21904683       -14.9300150715 -1.49E+01
     2 Broy./Diag. 0.10E+00    4.7     0.02578042       -14.9527847282 -2.28E-02
     3 Broy./Diag. 0.10E+00    5.0     0.00894285       -14.9302012665  2.26E-02
     4 Broy./Diag. 0.10E+00    4.8     0.01390488       -14.9112205324  1.90E-02
     5 Broy./Diag. 0.10E+00    4.9     0.00954488       -14.9081946523  3.03E-03
     6 Broy./Diag. 0.10E+00    5.1     0.00321395       -14.9157045056 -7.51E-03
     7 Broy./Diag. 0.10E+00    5.0     0.00671914       -14.9266397626 -1.09E-02
     8 Broy./Diag. 0.10E+00    5.2     0.01059205       -14.9406740754 -1.40E-02
     9 Broy./Diag. 0.10E+00    5.3     0.00634278       -14.9545962088 -1.39E-02
    10 Broy./Diag. 0.10E+00    5.3     0.00524095       -14.9657161629 -1.11E-02
    11 Broy./Diag. 0.10E+00    5.3     0.00339170       -14.9695310107 -3.81E-03
    12 Broy./Diag. 0.10E+00    5.3     0.00187707       -14.9712692818 -1.74E-03
    13 Broy./Diag. 0.10E+00    5.3     0.00529604       -14.9648492487  6.42E-03
    14 Broy./Diag. 0.10E+00    5.3     0.00224157       -14.9643705068  4.79E-04
    15 Broy./Diag. 0.10E+00    5.4     0.00128788       -14.9646599535 -2.89E-04
    16 Broy./Diag. 0.10E+00    5.3     0.00176683       -14.9649532356 -2.93E-04
    17 Broy./Diag. 0.10E+00    5.3     0.00088552       -14.9660459355 -1.09E-03
    18 Broy./Diag. 0.10E+00    5.4     0.00147453       -14.9667525224 -7.07E-04
    19 Broy./Diag. 0.10E+00    5.3     0.00041863       -14.9657843105  9.68E-04
    20 Broy./Diag. 0.10E+00    5.3     0.00168479       -14.9655018419  2.82E-04
    21 Broy./Diag. 0.10E+00    5.3     0.00086456       -14.9667513280 -1.25E-03
    22 Broy./Diag. 0.10E+00    5.3     0.00060573       -14.9658316337  9.20E-04
    23 Broy./Diag. 0.10E+00    5.4     0.00033101       -14.9652558074  5.76E-04
    24 Broy./Diag. 0.10E+00    5.3     0.00022481       -14.9654960859 -2.40E-04
    25 Broy./Diag. 0.10E+00    5.4     0.00034861       -14.9656387751 -1.43E-04
    26 Broy./Diag. 0.10E+00    5.4     0.00034302       -14.9654887720  1.50E-04
    27 Broy./Diag. 0.10E+00    5.3     0.00022790       -14.9653185651  1.70E-04
    28 Broy./Diag. 0.10E+00    5.3     0.00061190       -14.9648807167  4.38E-04
    29 Broy./Diag. 0.10E+00    5.3     0.00017753       -14.9646649087  2.16E-04
    30 Broy./Diag. 0.10E+00    5.4     0.00013211       -14.9647160748 -5.12E-05
    31 Broy./Diag. 0.10E+00    5.4     0.00013008       -14.9648966403 -1.81E-04
    32 Broy./Diag. 0.10E+00    5.4     0.00010967       -14.9648859468  1.07E-05
    33 Broy./Diag. 0.10E+00    5.4     0.00016235       -14.9647923145  9.36E-05
    34 Broy./Diag. 0.10E+00    5.4     0.00006213       -14.9647966421 -4.33E-06
    35 Broy./Diag. 0.10E+00    5.3     0.00003215       -14.9647677991  2.88E-05
    36 Broy./Diag. 0.10E+00    5.4     0.00007769       -14.9647730034 -5.20E-06
    37 Broy./Diag. 0.10E+00    5.4     0.00004321       -14.9647873978 -1.44E-05
    38 Broy./Diag. 0.10E+00    5.3     0.00001076       -14.9647538187  3.36E-05
    39 Broy./Diag. 0.10E+00    5.3     0.00001255       -14.9647418074  1.20E-05
    40 Broy./Diag. 0.10E+00    5.3     0.00003414       -14.9646938020  4.80E-05
    41 Broy./Diag. 0.10E+00    5.4     0.00005306       -14.9646274569  6.63E-05
    42 Broy./Diag. 0.10E+00    5.4     0.00000973       -14.9646317646 -4.31E-06
    43 Broy./Diag. 0.10E+00    5.5     0.00000819       -14.9646281381  3.63E-06
    44 Broy./Diag. 0.10E+00    5.3     0.00002071       -14.9645981302  3.00E-05
    45 Broy./Diag. 0.10E+00    5.3     0.00000596       -14.9645926283  5.50E-06
    46 Broy./Diag. 0.10E+00    5.3     0.00000609       -14.9645991700 -6.54E-06
    47 Broy./Diag. 0.10E+00    5.4     0.00000581       -14.9645979192  1.25E-06
    48 Broy./Diag. 0.10E+00    5.4     0.00000327       -14.9645894951  8.42E-06
    49 Broy./Diag. 0.10E+00    5.4     0.00000335       -14.9645853811  4.11E-06
    50 Broy./Diag. 0.10E+00    5.4     0.00000353       -14.9645835911  1.79E-06
    51 Broy./Diag. 0.10E+00    5.3     0.00000434       -14.9645810228  2.57E-06
    52 Broy./Diag. 0.10E+00    5.3     0.00000361       -14.9645814558 -4.33E-07
    53 Broy./Diag. 0.10E+00    5.3     0.00000177       -14.9645789243  2.53E-06
    54 Broy./Diag. 0.10E+00    5.4     0.00000358       -14.9645778844  1.04E-06
    55 Broy./Diag. 0.10E+00    5.4     0.00000099       -14.9645796260 -1.74E-06

  *** SCF run converged in    55 steps ***


  Electronic density on regular grids:         -4.2954865954        1.7045134046
  Core density on regular grids:                6.0000000000        0.0000000000
  Hard and soft densities (Lebedev):           -6.4574446491       -4.7529608865
  Total Rho_soft + Rho1_hard - Rho1_soft       -5.9999703579
  Total charge density (r-space):               0.0000296421
  Total Rho_soft + Rho0_soft (g-space):         0.0000295992

  Overlap energy of the core charge distribution:               0.00000000000000
  Self energy of the core charge distribution:                -12.69426562982452
  Core Hamiltonian energy:                                      0.44940338411750
  Hartree energy:                                               3.11951896307738
  Exchange-correlation energy:                                 -1.16177050470334
  Hartree-Fock Exchange energy:                                -0.88648320637225

  GAPW| Exc from hard and soft atomic rho1:                    -1.59317672663782
  GAPW| local Eh = 1 center integrals:                         -2.19780590569716
  Electronic entropic energy:                                  -0.00000000000000
  Fermi energy:                                                -0.08431569993458

  Total energy:                                               -14.96457962604021

 !-----------------------------------------------------------------------------!
                     Mulliken Population Analysis

 #  Atom  Element  Kind  Atomic population                           Net charge
       1     li       1          3.000000                              0.000000
       2     li       1          3.000000                             -0.000000
 # Total charge                              6.000000                  0.000000

 !-----------------------------------------------------------------------------!

 !-----------------------------------------------------------------------------!
                           Hirshfeld Charges

  #Atom  Element  Kind  Ref Charge     Population                    Net charge
      1       li     1       3.000          2.994                         0.006
      2       li     1       3.000          2.994                         0.006

  Total Charge                                                            0.011
 !-----------------------------------------------------------------------------!


 RI-RPA section
 --------------

  Used number of processes per group:                                          1
  Maximum allowed memory usage per MPI process:                      1024.00 MiB
  RI_INFO| Cholesky decomposition group size:                                  2
  RI_INFO| Number of groups for auxiliary basis functions                     24

  RI_INFO| RI metric:                                                    COULOMB
  RI_INFO| Number of auxiliary basis functions:                               36
  GENERAL_INFO| Number of basis functions:                                    70
  GENERAL_INFO| Number of occupied orbitals:                                   3
  GENERAL_INFO| Number of virtual orbitals:                                   67
  RI_INFO| Total memory for (ia|K) integrals:                           0.06 MiB
  RI_INFO| Total memory for G0W0-(nm|K) integrals:                      1.35 MiB
  RI_INFO| Total memory for (ij|K) integrals:                           0.00 MiB
  RI_INFO| Total memory for (ab|K) integrals:                           1.23 MiB
  RI_INFO| Group size for frequency integration:                              24
  INTEG_INFO| Clenshaw-Curtius quadrature
  INTEG_INFO| Number of integration points:                                  100
  INTEG_INFO| Number of integration points per RPA group:                    100
  MATRIX_INFO| Number row processes:                                           3
  MATRIX_INFO| Number column processes:                                        8
  MATRIX_INFO| Row block size:                                                 6
  MATRIX_INFO| Column block size:                                             12
  INTEG_INFO| Scaling parameter:                                         0.20000
  INTEG_INFO| Started with Integration point   1 of 100
  INTEG_INFO| Started with Integration point   2 of 100
  INTEG_INFO| Started with Integration point   3 of 100
  INTEG_INFO| Started with Integration point   4 of 100
  INTEG_INFO| Started with Integration point   5 of 100
  INTEG_INFO| Started with Integration point   6 of 100
  INTEG_INFO| Started with Integration point   7 of 100
  INTEG_INFO| Started with Integration point   8 of 100
  INTEG_INFO| Started with Integration point   9 of 100
  INTEG_INFO| Started with Integration point  10 of 100
  INTEG_INFO| Started with Integration point  11 of 100
  INTEG_INFO| Started with Integration point  12 of 100
  INTEG_INFO| Started with Integration point  13 of 100
  INTEG_INFO| Started with Integration point  14 of 100
  INTEG_INFO| Started with Integration point  15 of 100
  INTEG_INFO| Started with Integration point  16 of 100
  INTEG_INFO| Started with Integration point  17 of 100
  INTEG_INFO| Started with Integration point  18 of 100
  INTEG_INFO| Started with Integration point  19 of 100
  INTEG_INFO| Started with Integration point  20 of 100
  INTEG_INFO| Started with Integration point  21 of 100
  INTEG_INFO| Started with Integration point  22 of 100
  INTEG_INFO| Started with Integration point  23 of 100
  INTEG_INFO| Started with Integration point  24 of 100
  INTEG_INFO| Started with Integration point  25 of 100
  INTEG_INFO| Started with Integration point  26 of 100
  INTEG_INFO| Started with Integration point  27 of 100
  INTEG_INFO| Started with Integration point  28 of 100
  INTEG_INFO| Started with Integration point  29 of 100
  INTEG_INFO| Started with Integration point  30 of 100
  INTEG_INFO| Started with Integration point  31 of 100
  INTEG_INFO| Started with Integration point  32 of 100
  INTEG_INFO| Started with Integration point  33 of 100
  INTEG_INFO| Started with Integration point  34 of 100
  INTEG_INFO| Started with Integration point  35 of 100
  INTEG_INFO| Started with Integration point  36 of 100
  INTEG_INFO| Started with Integration point  37 of 100
  INTEG_INFO| Started with Integration point  38 of 100
  INTEG_INFO| Started with Integration point  39 of 100
  INTEG_INFO| Started with Integration point  40 of 100
  INTEG_INFO| Started with Integration point  41 of 100
  INTEG_INFO| Started with Integration point  42 of 100
  INTEG_INFO| Started with Integration point  43 of 100
[...]
 
 T. D. Kuehne, M. Iannuzzi, M. Del Ben, V. V. Rybkin, P. Seewald, F. Stein, T. 
 Laino, R. Z. Khaliullin, O. Schuett, F. Schiffmann, D. Golze, J. Wilhelm, S. 
 Chulkov, M. H. Bani-Hashemian, V. Weber, U. Borstnik, M. Taillefumier, A. S. 
 Jakobovits, A. Lazzaro, H. Pabst, T. Mueller, R. Schade, M. Guidon, S. 
 Andermatt, N. Holmberg, G. K. Schenter, A. Hehn, A. Bussy, F. Belleflamme, G. 
 Tabacchi, A. Gloess, M. Lass, I. Bethune, C. J. Mundy, C. Plessl, M. Watkins, 
 J. VandeVondele, M. Krack, J. Hutter.
 J. Chem. Phys. 152, 194103 (2020).
 CP2K: An electronic structure and molecular dynamics software package - 
 Quickstep: Efficient and accurate electronic structure calculations.
 https://doi.org/10.1063/5.0007045

 J. Wilhelm, D. Golze, L. Talirz, J. Hutter, C. A. Pignedoli.
 J. Phys. Chem. Lett. 9, 306-312 (2018).
 Toward GW calculations on thousands of atoms.
 https://doi.org/10.1021/acs.jpclett.7b02740

 J. Wilhelm, J. Hutter.
 Phys. Rev. B 95, 235123 (2017).
 Periodic GW calculations in the Gaussian and plane-waves scheme.
 https://doi.org/10.1103/PhysRevB.95.235123

 O. Schuett, P. Messmer, J. Hutter, J. VandeVondele.
 Electronic Structure Calculations on Graphics Processing Units, 173-190 (2016).
 GPU-Accelerated Sparse Matrix-Matrix Multiplication for Linear Scaling Density 
 Functional Theory.
 https://doi.org/10.1002/9781118670712.ch8

 J. Wilhelm, M. Del Ben, J. Hutter.
 J. Chem. Theory Comput. 12, 3623-3635 (2016).
 GW in the Gaussian and plane waves scheme with application to linear acenes.
 https://doi.org/10.1021/acs.jctc.6b00380

 M. Del Ben, O. Schuett, T. Wentz, P. Messmer, J. Hutter, J. VandeVondele.
 Comput. Phys. Commun. 187, 120-129 (2015).
 Enabling simulation at the fifth rung of DFT: Large scale RPA calculations with 
 excellent time to solution.
 https://doi.org/10.1016/j.cpc.2014.10.021

 J. Hutter, M. Iannuzzi, F. Schiffmann, J. VandeVondele.
 WIREs Comput Mol Sci. 4, 15-25 (2014).
 CP2K: atomistic simulations of condensed matter systems.
 https://doi.org/10.1002/wcms.1159

 U. Borstnik, J. VandeVondele, V. Weber, J. Hutter.
 Parallel Comput. 40, 47-58 (2014).
 Sparse matrix multiplication: The distributed block-compressed sparse row 
 library.
 https://doi.org/10.1016/j.parco.2014.03.012

 M. Del Ben, J. Hutter, J. VandeVondele.
 J. Chem. Theory Comput. 9, 2654-2671 (2013).
 Electron Correlation in the Condensed Phase from a Resolution of Identity 
 Approach Based on the Gaussian and Plane Waves Scheme.
 https://doi.org/10.1021/ct4002202

 M. Del Ben, J. Hutter, J. VandeVondele.
 J. Chem. Theory Comput. 8, 4177-4188 (2012).
 Second-Order Moller-Plesset Perturbation Theory in the Condensed Phase: An 
 Efficient and Massively Parallel Gaussian and Plane Waves Approach.
 https://doi.org/10.1021/ct300531w

 M. Guidon, J. Hutter, J. VandeVondele.
 J. Chem. Theory Comput. 5, 3010-3021 (2009).
 Robust Periodic Hartree-Fock Exchange for Large-Scale Simulations Using 
 Gaussian Basis Sets.
 https://doi.org/10.1021/ct900494g

 M. Guidon, F. Schiffmann, J. Hutter, J. VandeVondele.
 J. Chem. Phys. 128, 214104 (2008).
 Ab initio molecular dynamics using hybrid density functionals.
 https://doi.org/10.1063/1.2931945

 L. Genovese, T. Deutsch, S. Goedecker.
 J. Chem. Phys. 127, 054704 (2007).
 Efficient and accurate three-dimensional Poisson solver for surface problems.
 https://doi.org/10.1063/1.2754685

 J. VandeVondele, J. Hutter.
 J. Chem. Phys. 127, 114105 (2007).
 Gaussian basis sets for accurate calculations on molecular systems in gas and 
 condensed phases.
 https://doi.org/10.1063/1.2770708

 L. Genovese, T. Deutsch, A. Neelov, S. Goedecker, G. Beylkin.
 J. Chem. Phys. 125, 074105 (2006).
 Efficient solution of Poisson's equation with free boundary conditions.
 https://doi.org/10.1063/1.2335442

 M. Frigo, S. G. Johnson.
 Proc. IEEE 93, 216-231 (2005).
 The design and implementation of FFTW3.
 https://doi.org/10.1109/JPROC.2004.840301

 M. Krack, M. Parrinello.
 Phys. Chem. Chem. Phys. 2, 2105-2112 (2000).
 All-electron ab-initio molecular dynamics.
 https://doi.org/10.1039/b001167n

 G. Lippert, J. Hutter, M. Parrinello.
 Theor. Chem. Acc. 103, 124-140 (1999).
 The Gaussian and augmented-plane-wave density functional method for ab initio 
 molecular dynamics simulations.
 https://doi.org/10.1007/s002140050523

 J. P. Perdew, K. Burke, M. Ernzerhof.
 Phys. Rev. Lett. 77, 3865-3868 (1996).
 Generalized gradient approximation made simple.
 https://doi.org/10.1103/PhysRevLett.77.3865


 -------------------------------------------------------------------------------
 -                                                                             -
 -                                T I M I N G                                  -
 -                                                                             -
 -------------------------------------------------------------------------------
 SUBROUTINE                       CALLS  ASD         SELF TIME        TOTAL TIME
                                MAXIMUM       AVERAGE  MAXIMUM  AVERAGE  MAXIMUM
 CP2K                                 1  1.0    0.044    0.069  315.792  315.793
 qs_energies                          1  2.0    0.001    0.001  314.534  314.764
 scf_env_do_scf                       1  3.0    0.000    0.000  309.559  309.560
 scf_env_do_scf_inner_loop           55  4.0    0.002    0.003  309.559  309.560
 qs_ks_build_kohn_sham_matrix        56  7.0    0.009    0.010  239.228  239.242
 qs_ks_update_qs_env                 55  5.0    0.000    0.000  236.814  236.826
 rebuild_ks_matrix                   55  6.0    0.000    0.000  236.809  236.822
 fft_wrap_pw1pw2                   1167  9.9    0.028    0.034  132.376  133.661
 fft_wrap_pw1pw2_250                831 11.1    5.808    6.476  128.397  129.958
 fft3d_ps                          1167 11.9   56.893   59.240  104.110  105.726
 pw_poisson_solve                    56  8.0    2.459    2.574   90.430   90.460
 qs_vxc_create                       56  8.0    0.001    0.001   79.555   79.556
 xc_vxc_pw_create                    55  9.0    1.355    1.418   79.555   79.555
 xc_pw_derive                       330 11.0    0.004    0.005   57.960   59.539
 ps_wavelet_solve                    56  9.0   50.301   53.762   59.437   59.525
 mp_alltoall_d54                     56 10.0    5.567   46.484    5.567   46.484
 xc_rho_set_and_dset_create          55 10.0    1.002    1.112   39.393   41.236
 xc_pw_divergence                    55 10.0    0.002    0.003   38.215   39.305
 gspace_mixing                       54  5.0    1.055    1.064   39.241   39.241
 mp_alltoall_z22v                  1167 13.9   29.164   37.432   29.164   37.432
 qs_rho_update_rho_low               56  5.0    0.001    0.001   33.726   33.726
 calculate_rho_elec                  56  6.0    1.094    1.104   33.658   33.659
 broyden_mixing                      54  6.0   29.353   29.949   29.859   30.130
 x_to_yz                            610 13.1   12.337   12.602   26.442   26.970
 yz_to_x                            557 12.8    5.699    6.948   20.758   26.150
 density_rs2pw                       56  7.0    0.004    0.004   24.943   25.259
 hfx_ks_matrix                       56  8.0    0.002    0.003   19.732   19.802
 integrate_four_center               56  9.0    1.355    2.604   19.729   19.798
 sum_up_and_integrate                56  8.0    0.001    0.001   17.895   17.926
 integrate_v_rspace                  56  9.0    0.001    0.002   17.554   17.630
 potential_pw2rs                     56 10.0    0.051    0.060   17.184   17.258
 mp_sync                            701  9.3   14.427   16.719   14.427   16.719
 prepare_gapw_den                    56  8.0    0.001    0.001   15.016   15.207
 integrate_four_center_main          56 10.0    0.101    1.998    1.167   14.869
 put_rho0_on_grid                    56  9.0    1.097    1.113   13.837   14.027
 integrate_four_center_bin         4345 11.0    1.066   12.871    1.066   12.871
 transfer_pw2rs                     281 10.6    0.005    0.005   10.166   10.213
 pw_scatter_p                       610 12.1    9.628    9.762    9.628    9.762
 xc_functional_eval                 165 10.9    0.001    0.001    7.925    9.670
 pbe_lda_eval                       165 11.9    7.925    9.669    7.925    9.669
 transfer_rs2pw                     281  8.4    0.007    0.010    8.716    8.868
 pw_gather_p                        557 11.8    7.990    8.623    7.990    8.623
 transfer_pw2rs_250                 113 10.9    2.800    2.992    7.492    7.658
 mp_waitany                        9464 11.5    7.018    7.589    7.018    7.589
 grid_collocate_task_list            56  7.0    7.221    7.383    7.221    7.383
 pw_derive                          498 11.3    6.614    6.967    6.614    6.967
 transfer_rs2pw_250                 113 10.0    2.890    3.041    6.457    6.649
 mp_sum_d                          1643  6.0    3.569    5.486    3.569    5.486
 integrate_vhg0_rspace               56  8.0    0.039    0.045    4.874    4.882
 mp_alltoall_d45                     57 10.0    2.985    4.009    2.985    4.009
 mp2_main                             1  3.0    0.000    0.000    3.726    3.956
 cp2k_distribution_to_z_slices       56  9.0    2.160    2.254    3.540    3.871
 fft_wrap_pw1pw2_90                 112 10.5    0.172    0.230    3.274    3.818
 pw_copy                            835 10.6    3.527    3.760    3.527    3.760
 pw_poisson_set                      57  8.9    0.002    0.002    3.318    3.348
 pw_copy_to_array                   557 11.8    2.977    3.261    2.977    3.261
 mp_alltoall_d11v                  1016  9.4    2.346    3.233    2.346    3.233
 calc_screening_functions             1 10.0    2.384    2.601    2.445    2.663
 pw_axpy                            555  9.3    2.412    2.626    2.412    2.626
 compute_vec_Sigma_x_minus_vxc_       1  4.0    0.000    0.000    2.423    2.423
 rs_grid_zero                       282 11.1    2.361    2.401    2.361    2.401
 pw_integral_ab_c1d_c1d_gs           56  9.0    1.663    1.817    2.017    2.125
 pw_copy_from_array                 610 12.1    1.629    1.924    1.629    1.924
 pw_poisson_rebuild                  56  9.0    0.000    0.000    1.804    1.837
 ps_wavelet_create                    1 10.0    0.000    0.000    1.804    1.837
 RS_z_slice_distribution              1 11.0    1.648    1.701    1.804    1.837
 calculate_vxc_atom                  56  8.0    0.018    0.150    1.551    1.551
 transfer_pw2rs_90                   56 12.0    0.406    0.461    1.274    1.428
 gaVxcgb_GC                          55  9.0    0.113    1.358    0.113    1.358
 transfer_rs2pw_90                   56  9.0    0.329    0.352    1.092    1.231
 transfer_pw2rs_30                   56 12.0    0.623    0.670    1.088    1.174
 mp_sum_dv                         2401 10.8    1.012    1.171    1.012    1.171
 mp_waitall_1                      9980 12.1    0.790    1.170    0.790    1.170
 pw_zero                            332 10.3    1.103    1.155    1.103    1.155
 calculate_rho_atom                  56  9.0    0.220    1.132    0.220    1.132
 mp2_gpw_main                         1  4.0    0.000    0.000    1.121    1.131
 rpa_ri_compute_en                    1  5.0    0.000    0.000    1.009    1.009
 rpa_num_int                          1  6.0    0.001    0.001    1.004    1.005
 init_scf_run                         1  3.0    0.000    0.000    0.992    0.993
 scf_env_initial_rho_setup            1  4.0    0.000    0.000    0.985    0.986
 transfer_rs2pw_30                   56  9.0    0.479    0.503    0.931    0.953
 mp_isend_dv                       9656 11.6    0.667    0.867    0.667    0.867
 qs_init_subsys                       1  2.0    0.005    0.007    0.861    0.861
 qs_env_setup                         1  3.0    0.000    0.000    0.849    0.852
 qs_env_rebuild_pw_env                2  3.5    0.000    0.000    0.848    0.851
 pw_env_rebuild                       1  5.0    0.001    0.001    0.848    0.851
 compute_GW_self_energy             100  7.0    0.001    0.001    0.821    0.848
 pw_grid_setup                        4  6.0    0.000    0.000    0.838    0.841
 pw_grid_setup_internal               4  7.0    0.019    0.024    0.838    0.841
 mp_isend_dm3                      1352 11.5    0.365    0.833    0.365    0.833
 Vh_1c_gg_integrals                  56  8.0    0.015    0.147    0.329    0.831
 compute_GW_self_energy_deep        100  8.0    0.706    0.732    0.790    0.817
 mp_max_i                           529  2.7    0.490    0.779    0.490    0.779
 scale_and_distribute               112 10.0    0.741    0.774    0.741    0.774
 mp_sum_dm                          396  7.6    0.528    0.724    0.528    0.724
 pw_grid_sort                         4  8.0    0.473    0.476    0.669    0.673
 mp_sendrecv_dv                    2576 10.0    0.592    0.618    0.592    0.618
 mp_irecv_dm3                      1352 11.5    0.344    0.602    0.344    0.602
 fft_wrap_pw1pw2_30                 112 10.5    0.027    0.032    0.551    0.573
 qs_scf_new_mos                      55  5.0    0.001    0.001    0.450    0.452
 mp_sum_i                            17  9.9    0.231    0.392    0.231    0.392
 restraint_control                    1  2.0    0.000    0.000    0.230    0.391
 mp2_main_alloc_hfx                   1  4.0    0.161    0.391    0.161    0.391
 rs_gather_matrices                  56 10.0    0.001    0.005    0.251    0.369
 transfer_pw2rs_10                   56 12.0    0.131    0.139    0.307    0.364
 mp_isendrecv_dv                   5152 12.0    0.177    0.363    0.177    0.363
 grid_integrate_task_list            56 10.0    0.118    0.360    0.118    0.360
 pw_scale                           221  9.5    0.281    0.321    0.281    0.321
 mixing_init                          1  5.0    0.289    0.292    0.292    0.292
 mp_sum_l                           816  5.6    0.241    0.287    0.241    0.287
 cp_fm_syevd                         61  7.0    0.000    0.000    0.276    0.276
 integrate_four_center_load          56 10.0    0.000    0.001    0.223    0.265
 hfx_load_balance                     1 11.0    0.000    0.000    0.223    0.265
 eigensolver_symm                    56  6.0    0.002    0.002    0.263    0.263
 hfx_load_balance_range               1 12.0    0.000    0.000    0.220    0.263
 cp_fm_redistribute_end              61  8.0    0.131    0.241    0.132    0.242
 transfer_rs2pw_10                   56  9.0    0.089    0.091    0.229    0.239
 cp_fm_syevd_base                    61  8.0    0.110    0.220    0.110    0.220
 sort_shells                          4  9.0    0.196    0.198    0.196    0.198
 xc_pw_smooth                        55 10.0    0.000    0.000    0.150    0.191
 scf_post_calculation_gpw             1  3.0    0.000    0.000    0.158    0.158
 write_available_results              1  4.0    0.000    0.000    0.158    0.158
 write_mo_free_results                1  5.0    0.026    0.026    0.158    0.158
 fft_wrap_pw1pw2_10                 112 10.5    0.006    0.008    0.126    0.139
 calculate_dm_sparse                 55  6.0    0.000    0.000    0.129    0.132
 cp_dbcsr_plus_fm_fm_t               55  7.0    0.001    0.001    0.129    0.132
 parallel_gemm_fm                   330  8.6    0.000    0.000    0.120    0.123
 parallel_gemm_fm_gemm              330  9.6    0.000    0.000    0.119    0.123
 cp_fm_gemm                         330 10.6    0.119    0.122    0.119    0.122
 powell_optimize                  42150 11.0    0.106    0.109    0.106    0.109
 dbcsr_multiply_generic              76  8.1    0.004    0.004    0.102    0.106
 pw_grid_assign                       4  8.0    0.103    0.104    0.105    0.105
 mp_irecv_dv                       9639 11.6    0.070    0.104    0.070    0.104
 calc_pair_dist_radii                 1 10.0    0.054    0.054    0.099    0.101
 mp2_ri_gpw_compute_in                1  5.0    0.000    0.000    0.098    0.098
 qs_energies_init_hamiltonians        1  3.0    0.000    0.000    0.097    0.097
 mp2_ri_gpw_compute_in_loop           1  6.0    0.000    0.000    0.095    0.095
 build_core_hamiltonian_matrix        1  4.0    0.000    0.000    0.093    0.093
 overlap_condnum                      1  5.0    0.000    0.000    0.091    0.092
 contract_B_L                         4  7.0    0.001    0.001    0.081    0.088
 rpa_num_int_RPA_matrix_operati     100  7.0    0.001    0.002    0.080    0.081
 arnoldi_conjugate_gradient           5  6.0    0.002    0.003    0.071    0.071
 hirshfeld_integration                1  6.0    0.001    0.004    0.069    0.071
 calculate_rho_atom_coeff            56  6.0    0.014    0.031    0.067    0.067
 copy_dbcsr_to_fm                    74  6.4    0.001    0.001    0.064    0.065
 dbcsr_complete_redistribute        188  8.4    0.007    0.010    0.064    0.065
 calculate_hirshfeld_normalizat       1  6.0    0.001    0.007    0.062    0.063
 calc_mat_Q                         100  8.0    0.000    0.000    0.058    0.058
 contract_S_to_Q                    100  9.0    0.000    0.000    0.057    0.057
 dbt_total                            8  8.0    0.000    0.000    0.057    0.057
 make_m2s                           152  9.1    0.003    0.003    0.053    0.056
 create_qs_kind_set                   1  2.0    0.000    0.000    0.054    0.054
 read_qs_kind                         1  3.0    0.016    0.025    0.054    0.054
 start_bse_calculation                1  7.0    0.000    0.000    0.053    0.053
 dbt_contract                         4  9.0    0.001    0.001    0.052    0.052
 integrate_four_center_getP          56 10.0    0.003    0.003    0.048    0.051
 cp_fm_to_fm_submat_general         112 10.1    0.047    0.048    0.047    0.048
 update_ks_atom                      56  8.0    0.007    0.021    0.032    0.047
 calculate_rho0_atom                 56  9.0    0.045    0.046    0.045    0.046
 dbcsr_sym_matrix_vector_mult       276  7.0    0.004    0.005    0.030    0.043
 integrate_four_center_dist_KS       56 10.0    0.003    0.004    0.041    0.042
 offload_free_buffer                 64  8.2    0.032    0.040    0.032    0.040
 parser_read_line                  2388  4.0    0.001    0.001    0.038    0.039
 dbt_tas_multiply                     8 11.5    0.000    0.000    0.038    0.039
 dbt_tas_total                        8 12.5    0.001    0.002    0.038    0.038
 parser_read_line_low                 6  5.0    0.004    0.012    0.037    0.038
 copy_fm_to_dbcsr                   114  8.1    0.000    0.000    0.036    0.037
 broadcast_input_information          6  6.0    0.008    0.009    0.034    0.037
 dbcsr_finalize                    1653 10.8    0.006    0.011    0.020    0.036
 vxc_of_r_new                       110  9.0    0.000    0.005    0.003    0.036
 mp_cart_create                     275 10.8    0.028    0.035    0.028    0.035
 mp_bcast_dm                        224  9.0    0.026    0.035    0.026    0.035
 multiply_cannon                     76  9.1    0.006    0.006    0.033    0.035
 cp_fm_redistribute_start            61  8.0    0.026    0.027    0.033    0.034
 dbcsr_desymmetrize_deep             76  7.3    0.002    0.002    0.032    0.033
 diagonalize_C                        1  8.0    0.000    0.000    0.033    0.033
 -------------------------------------------------------------------------------

 The number of warnings for this run is : 1
 
 -------------------------------------------------------------------------------
  **** **** ******  **  PROGRAM ENDED AT                 2025-03-13 10:45:52.731
 ***** ** ***  *** **   PROGRAM RAN ON                              i01r05c04s09
 **    ****   ******    PROGRAM RAN BY                                   di38fab
 ***** **    ** ** **   PROGRAM PROCESS ID                                 91654
  **** **  *******  **  PROGRAM STOPPED IN /hppfs/scratch/04/di38fab/05_MOL/W4-1
                                           1+ALK/li2/TZVP/GW+BSE/Np1
