 DBCSR| CPU Multiplication driver                                           BLAS (U)
 DBCSR| Multrec recursion limit                                              512 (U)
 DBCSR| Multiplication stack size                                           1000 (D)
 DBCSR| Maximum elements for images                                    UNLIMITED (U)
 DBCSR| Multiplicative factor virtual images                                   1 (U)
 DBCSR| Use multiplication densification                                       T (D)
 DBCSR| Multiplication size stacks                                             3 (U)
 DBCSR| Use memory pool for CPU allocation                                     F (U)
 DBCSR| Number of 3D layers                                               SINGLE (U)
 DBCSR| Use MPI memory allocation                                              F (U)
 DBCSR| Use RMA algorithm                                                      F (U)
 DBCSR| Use Communication thread                                               T (U)
 DBCSR| Communication thread load                                             75 (D)
 DBCSR| MPI: My process id                                                     0
 DBCSR| MPI: Number of processes                                              24
 DBCSR| OMP: Current number of threads                                         4
 DBCSR| OMP: Max number of threads                                             4
 DBCSR| Split modifier for TAS multiplication algorithm                  1.0E+00 (U)


  **** **** ******  **  PROGRAM STARTED AT               2025-03-04 07:58:16.141
 ***** ** ***  *** **   PROGRAM STARTED ON                          i05r02c05s01
 **    ****   ******    PROGRAM STARTED BY                               di38fab
 ***** **    ** ** **   PROGRAM PROCESS ID                               1107513
  **** **  *******  **  PROGRAM STARTED IN /hppfs/scratch/04/di38fab/05_MOL/W4-1
                                           1+ALK/so/SZVSR

 CP2K| version string:                 CP2K version 2025.1 (Development Version)
 CP2K| source code revision number:                                  git:47877ba
 CP2K| cp2kflags: omp libint fftw3 libxc parallel scalapack max_contr=4         
 CP2K| is freely available from                            https://www.cp2k.org/
 CP2K| Program compiled at                          Thu Feb 20 16:00:34 CET 2025
 CP2K| Program compiled on                                               login04
 CP2K| Program compiled for                                        Supermuc-foss
 CP2K| Data directory path          /hppfs/work/pn36zo/di38fab/newcp2k/cp2k/data
 CP2K| Input file name                                                    GW.inp

 GLOBAL| Force Environment number                                              1
 GLOBAL| Basis set file name            /hppfs/scratch/04/di38fab/04_TMD/BASIS_A
 GLOBAL| Potential file name            /hppfs/work/pn36zo/di38fab/cp2k/data/ALL
 GLOBAL| MM Potential file name                                     MM_POTENTIAL
 GLOBAL| Coordinate file name                                      __STD_INPUT__
 GLOBAL| Method name                                                        CP2K
 GLOBAL| Project name                                                       MoS2
 GLOBAL| Run type                                                         ENERGY
 GLOBAL| FFT library                                                       FFTW3
 GLOBAL| Diagonalization library                                       ScaLAPACK
 GLOBAL| DGEMM library                                                      BLAS
 GLOBAL| Orthonormality check for eigenvectors                          DISABLED
 GLOBAL| Matrix multiplication library                                 ScaLAPACK
 GLOBAL| All-to-all communication in single precision                          F
 GLOBAL| FFTs using library dependent lengths                                  F
 GLOBAL| Grid backend                                                       AUTO
 GLOBAL| Global print level                                               MEDIUM
 GLOBAL| MPI I/O enabled                                                       T
 GLOBAL| Total number of message passing processes                            24
 GLOBAL| Number of threads for this process                                    4
 GLOBAL| This output is from process                                           0
 GLOBAL| OpenMP stack size per thread (OMP_STACKSIZE)                    default
 GLOBAL| CPU model name             Intel(R) Xeon(R) Platinum 8174 CPU @ 3.10GHz

 MEMORY| system memory details [Kb]
 MEMORY|                        rank 0           min           max       average
 MEMORY| MemTotal             98436664      98436664      98436664      98436664
 MEMORY| MemFree              84180900      84180900      84217848      84199374
 MEMORY| Buffers                     0             0             0             0
 MEMORY| Cached                2402236       2402236       2402392       2402314
 MEMORY| Slab                  1218396       1211456       1218396       1214926
 MEMORY| SReclaimable           269568        258744        269568        264156
 MEMORY| MemLikelyFree        86852704      86852704      86878984      86865844


 *** Fundamental physical constants (SI units) ***

 *** Literature: B. J. Mohr and B. N. Taylor,
 ***             CODATA recommended values of the fundamental physical
 ***             constants: 2006, Web Version 5.1
 ***             http://physics.nist.gov/constants

 Speed of light in vacuum [m/s]                             2.99792458000000E+08
 Magnetic constant or permeability of vacuum [N/A**2]       1.25663706143592E-06
 Electric constant or permittivity of vacuum [F/m]          8.85418781762039E-12
 Planck constant (h) [J*s]                                  6.62606896000000E-34
 Planck constant (h-bar) [J*s]                              1.05457162825177E-34
 Elementary charge [C]                                      1.60217648700000E-19
 Electron mass [kg]                                         9.10938215000000E-31
 Electron g factor [ ]                                     -2.00231930436220E+00
 Proton mass [kg]                                           1.67262163700000E-27
 Fine-structure constant                                    7.29735253760000E-03
 Rydberg constant [1/m]                                     1.09737315685270E+07
 Avogadro constant [1/mol]                                  6.02214179000000E+23
 Boltzmann constant [J/K]                                   1.38065040000000E-23
 Atomic mass unit [kg]                                      1.66053878200000E-27
 Bohr radius [m]                                            5.29177208590000E-11

 *** Conversion factors ***

 [u] -> [a.u.]                                              1.82288848426455E+03
 [Angstrom] -> [Bohr] = [a.u.]                              1.88972613288564E+00
 [a.u.] = [Bohr] -> [Angstrom]                              5.29177208590000E-01
 [a.u.] -> [s]                                              2.41888432650478E-17
 [a.u.] -> [fs]                                             2.41888432650478E-02
 [a.u.] -> [J]                                              4.35974393937059E-18
 [a.u.] -> [N]                                              8.23872205491840E-08
 [a.u.] -> [K]                                              3.15774647902944E+05
 [a.u.] -> [kJ/mol]                                         2.62549961709828E+03
 [a.u.] -> [kcal/mol]                                       6.27509468713739E+02
 [a.u.] -> [Pa]                                             2.94210107994716E+13
 [a.u.] -> [bar]                                            2.94210107994716E+08
 [a.u.] -> [atm]                                            2.90362800883016E+08
 [a.u.] -> [eV]                                             2.72113838565563E+01
 [a.u.] -> [Hz]                                             6.57968392072181E+15
 [a.u.] -> [1/cm] (wave numbers)                            2.19474631370540E+05
 [a.u./Bohr**2] -> [1/cm]                                   5.14048714338585E+03
 

 CELL_TOP| Volume [angstrom^3]:                                     27000.000000
 CELL_TOP| Vector a [angstrom    30.000     0.000     0.000   |a| =    30.000000
 CELL_TOP| Vector b [angstrom     0.000    30.000     0.000   |b| =    30.000000
 CELL_TOP| Vector c [angstrom     0.000     0.000    30.000   |c| =    30.000000
 CELL_TOP| Angle (b,c), alpha [degree]:                                90.000000
 CELL_TOP| Angle (a,c), beta  [degree]:                                90.000000
 CELL_TOP| Angle (a,b), gamma [degree]:                                90.000000
 CELL_TOP| Numerically orthorhombic:                                         YES
 CELL_TOP| Periodicity                                                      NONE

 GENERATE|  Preliminary Number of Bonds generated:                             0
 GENERATE|  Achieved consistency in connectivity generation.

 CELL| Volume [angstrom^3]:                                         27000.000000
 CELL| Vector a [angstrom]:      30.000     0.000     0.000   |a| =    30.000000
 CELL| Vector b [angstrom]:       0.000    30.000     0.000   |b| =    30.000000
 CELL| Vector c [angstrom]:       0.000     0.000    30.000   |c| =    30.000000
 CELL| Angle (b,c), alpha [degree]:                                    90.000000
 CELL| Angle (a,c), beta  [degree]:                                    90.000000
 CELL| Angle (a,b), gamma [degree]:                                    90.000000
 CELL| Numerically orthorhombic:                                             YES
 CELL| Periodicity                                                          NONE

 CELL_REF| Volume [angstrom^3]:                                     27000.000000
 CELL_REF| Vector a [angstrom    30.000     0.000     0.000   |a| =    30.000000
 CELL_REF| Vector b [angstrom     0.000    30.000     0.000   |b| =    30.000000
 CELL_REF| Vector c [angstrom     0.000     0.000    30.000   |c| =    30.000000
 CELL_REF| Angle (b,c), alpha [degree]:                                90.000000
 CELL_REF| Angle (a,c), beta  [degree]:                                90.000000
 CELL_REF| Angle (a,b), gamma [degree]:                                90.000000
 CELL_REF| Numerically orthorhombic:                                         YES
 CELL_REF| Periodicity                                                      NONE

 *******************************************************************************
 *******************************************************************************
 **                                                                           **
 **     #####                         ##              ##                      **
 **    ##   ##            ##          ##              ##                      **
 **   ##     ##                       ##            ######                    **
 **   ##     ##  ##   ##  ##   #####  ##  ##   ####   ##    #####    #####    **
 **   ##     ##  ##   ##  ##  ##      ## ##   ##      ##   ##   ##  ##   ##   **
 **   ##  ## ##  ##   ##  ##  ##      ####     ###    ##   ######   ######    **
 **    ##  ###   ##   ##  ##  ##      ## ##      ##   ##   ##       ##        **
 **     #######   #####   ##   #####  ##  ##  ####    ##    #####   ##        **
 **           ##                                                    ##        **
 **                                                                           **
 **                                                ... make the atoms dance   **
 **                                                                           **
 **            Copyright (C) by CP2K developers group (2000-2025)             **
 **                      J. Chem. Phys. 152, 194103 (2020)                    **
 **                                                                           **
 *******************************************************************************

 DFT| Spin restricted Kohn-Sham (RKS) calculation                            RKS
 DFT| Multiplicity                                                             1
 DFT| Number of spin states                                                    1
 DFT| Charge                                                                   0
 DFT| Self-interaction correction (SIC)                                       NO
 DFT| Cutoffs: density                                              1.000000E-10
 DFT|          gradient                                             1.000000E-10
 DFT|          tau                                                  1.000000E-10
 DFT|          cutoff_smoothing_range                               0.000000E+00
 DFT| XC density smoothing                                                  NONE
 DFT| XC derivatives                                                          PW

 FUNCTIONAL| PBE:
 FUNCTIONAL| J.P.Perdew, K.Burke, M.Ernzerhof, Phys. Rev. Letter, vol. 77, n 18,
 FUNCTIONAL|  pp. 3865-3868, (1996)sx=0.750sc=1.000{spin unpolarized}           


 QS| Method:                                                                GAPW
 QS| Density plane wave grid type                        NON-SPHERICAL FULLSPACE
 QS| Number of grid levels:                                                    4
 QS| Density cutoff [a.u.]:                                                250.0
 QS| Multi grid cutoff [a.u.]: 1) grid level                               250.0
 QS|                           2) grid level                                83.3
 QS|                           3) grid level                                27.8
 QS|                           4) grid level                                 9.3
 QS| Grid level progression factor:                                          3.0
 QS| Relative density cutoff [a.u.]:                                        50.0
 QS| Interaction thresholds: eps_pgf_orb:                                1.0E-12
 QS|                         eps_filter_matrix:                          0.0E+00
 QS|                         eps_core_charge:                            1.0E-14
 QS|                         eps_rho_gspace:                             1.0E-12
 QS|                         eps_rho_rspace:                             1.0E-12
 QS|                         eps_gvg_rspace:                             1.0E-06
 QS|                         eps_ppl:                                    1.0E-02
 QS|                         eps_ppnl:                                   1.0E-08
 QS| GAPW|      One center basis from orbital basis primitives
 QS| GAPW|                   eps_fit:                                    1.0E-04
 QS| GAPW|                   eps_iso:                                    1.0E-12
 QS| GAPW|                   eps_svd:                                    1.0E-08
 QS| GAPW|                   eps_cpc:                                    1.0E-12
 QS| GAPW|   atom-r-grid: quadrature:                                     GC_LOG
 QS| GAPW|      atom-s-grid:  max l :                                          4
 QS| GAPW|      max_l_rho0 :                                                   2


 ATOMIC KIND INFORMATION

  1. Atomic kind: S                                     Number of atoms:       1

     Orbital Basis Set                                         aug-SZV-MOLOPT-ae

       Number of orbital shell sets:                                           3
       Number of orbital shells:                                               8
       Number of primitive Cartesian functions:                               19
       Number of Cartesian basis functions:                                   19
       Number of spherical basis functions:                                   18
       Norm type:                                                              2

       Normalised Cartesian orbitals:

                        Set   Shell   Orbital            Exponent    Coefficient

                          1       1    1s                0.072000       0.000000
                                                         0.148404       0.047043
                                                         0.287959       0.206056
                                                         0.581913       0.071732
                                                         1.300021      -0.154888
                                                         3.466625      -0.128563
                                                        12.944394      -0.038633

                          1       2    2s                0.072000       0.024465
                                                         0.148404       0.270123
                                                         0.287959      -0.286184
                                                         0.581913       0.001423
                                                         1.300021       0.046778
                                                         3.466625       0.000000
                                                        12.944394       0.000000

                          1       3    2px               0.072000       0.000000
                                                         0.148404       0.013902
                                                         0.287959       0.147021
                                                         0.581913       0.300295
                                                         1.300021       0.150808
                                                         3.466625      -0.123340
                                                        12.944394      -0.249863
                          1       3    2py               0.072000       0.000000
                                                         0.148404       0.013902
                                                         0.287959       0.147021
                                                         0.581913       0.300295
                                                         1.300021       0.150808
                                                         3.466625      -0.123340
                                                        12.944394      -0.249863
                          1       3    2pz               0.072000       0.000000
                                                         0.148404       0.013902
                                                         0.287959       0.147021
                                                         0.581913       0.300295
                                                         1.300021       0.150808
                                                         3.466625      -0.123340
                                                        12.944394      -0.249863

                          1       4    3px               0.072000      -0.066040
                                                         0.148404       0.050064
                                                         0.287959      -0.069730
                                                         0.581913       0.158592
                                                         1.300021      -0.055990
                                                         3.466625       0.000000
                                                        12.944394       0.000000
                          1       4    3py               0.072000      -0.066040
                                                         0.148404       0.050064
                                                         0.287959      -0.069730
                                                         0.581913       0.158592
                                                         1.300021      -0.055990
                                                         3.466625       0.000000
                                                        12.944394       0.000000
                          1       4    3pz               0.072000      -0.066040
                                                         0.148404       0.050064
                                                         0.287959      -0.069730
                                                         0.581913       0.158592
                                                         1.300021      -0.055990
                                                         3.466625       0.000000
                                                        12.944394       0.000000

                          1       5    3dx2              0.072000       0.001679
                                                         0.148404       0.023049
                                                         0.287959       0.065695
                                                         0.581913       0.132541
                                                         1.300021       0.392654
                                                         3.466625       0.000000
                                                        12.944394       0.000000
                          1       5    3dxy              0.072000       0.002907
                                                         0.148404       0.039921
                                                         0.287959       0.113787
                                                         0.581913       0.229567
                                                         1.300021       0.680096
                                                         3.466625       0.000000
                                                        12.944394       0.000000
                          1       5    3dxz              0.072000       0.002907
                                                         0.148404       0.039921
                                                         0.287959       0.113787
                                                         0.581913       0.229567
                                                         1.300021       0.680096
                                                         3.466625       0.000000
                                                        12.944394       0.000000
                          1       5    3dy2              0.072000       0.001679
                                                         0.148404       0.023049
                                                         0.287959       0.065695
                                                         0.581913       0.132541
                                                         1.300021       0.392654
                                                         3.466625       0.000000
                                                        12.944394       0.000000
                          1       5    3dyz              0.072000       0.002907
                                                         0.148404       0.039921
                                                         0.287959       0.113787
                                                         0.581913       0.229567
                                                         1.300021       0.680096
                                                         3.466625       0.000000
                                                        12.944394       0.000000
                          1       5    3dz2              0.072000       0.001679
                                                         0.148404       0.023049
                                                         0.287959       0.065695
                                                         0.581913       0.132541
                                                         1.300021       0.392654
                                                         3.466625       0.000000
                                                        12.944394       0.000000

                          2       1    1s              345.589679      -0.757073
                                                        68.401217      -0.796580
                                                        21.259047      -0.238395
                                                         8.179122       0.862581
                                                         3.552198       1.097452
                                                         1.628232       0.247277

                          2       2    2px             345.589679       7.985348
                                                        68.401217      10.565097
                                                        21.259047      11.315175
                                                         8.179122       8.242094
                                                         3.552198       2.960247
                                                         1.628232       0.266650
                          2       2    2py             345.589679       7.985348
                                                        68.401217      10.565097
                                                        21.259047      11.315175
                                                         8.179122       8.242094
                                                         3.552198       2.960247
                                                         1.628232       0.266650
                          2       2    2pz             345.589679       7.985348
                                                        68.401217      10.565097
                                                        21.259047      11.315175
                                                         8.179122       8.242094
                                                         3.552198       2.960247
                                                         1.628232       0.266650

                          3       1    1s             5529.038289       4.187581
                                                      1013.743118       6.320396
                                                       283.608793       8.301345
                                                        97.427275       8.189970
                                                        37.833862       4.528212
                                                        15.582074       0.728513

     RI Auxiliary Basis Set             RI_aug-SZV-MOLOPT-ae_N_RI_072_s_p_d_f_g_

       Number of orbital shell sets:                                          20
       Number of orbital shells:                                              20
       Number of primitive Cartesian functions:                               20
       Number of Cartesian basis functions:                                   93
       Number of spherical basis functions:                                   72
       Norm type:                                                              2

       Normalised Cartesian orbitals:

                        Set   Shell   Orbital            Exponent    Coefficient

                          1       1   19gx4              0.275952       0.032265
                          1       1   19gx3y             0.275952       0.085365
                          1       1   19gx3z             0.275952       0.085365
                          1       1   19gx2y2            0.275952       0.110205
                          1       1   19gx2yz            0.275952       0.190881
                          1       1   19gx2z2            0.275952       0.110205
                          1       1   19gxy3             0.275952       0.085365
                          1       1   19gxy2z            0.275952       0.190881
                          1       1   19gxyz2            0.275952       0.190881
                          1       1   19gxz3             0.275952       0.085365
                          1       1   19gy4              0.275952       0.032265
                          1       1   19gy3z             0.275952       0.085365
                          1       1   19gy2z2            0.275952       0.110205
                          1       1   19gyz3             0.275952       0.085365
                          1       1   19gz4              0.275952       0.032265

                          2       1    8px               0.294315       0.308998
                          2       1    8py               0.294315       0.308998
                          2       1    8pz               0.294315       0.308998

                          3       1    1s                0.341678       0.318510

                          4       1   14dx2              0.636998       0.747568
                          4       1   14dxy              0.636998       1.294827
                          4       1   14dxz              0.636998       1.294827
                          4       1   14dy2              0.636998       0.747568
                          4       1   14dyz              0.636998       1.294827
                          4       1   14dz2              0.636998       0.747568

                          5       1   17fx3              0.644663       0.548218
                          5       1   17fx2y             0.644663       1.225852
                          5       1   17fx2z             0.644663       1.225852
                          5       1   17fxy2             0.644663       1.225852
                          5       1   17fxyz             0.644663       2.123239
                          5       1   17fxz2             0.644663       1.225852
                          5       1   17fy3              0.644663       0.548218
                          5       1   17fy2z             0.644663       1.225852
                          5       1   17fyz2             0.644663       1.225852
                          5       1   17fz3              0.644663       0.548218

                          6       1    9px               0.688735       0.894345
                          6       1    9py               0.688735       0.894345
                          6       1    9pz               0.688735       0.894345

                          7       1    2s                1.050557       0.739562

                          8       1   20gx4              1.447489       3.077001
                          8       1   20gx3y             1.447489       8.140980
                          8       1   20gx3z             1.447489       8.140980
                          8       1   20gx2y2            1.447489      10.509960
                          8       1   20gx2yz            1.447489      18.203785
                          8       1   20gx2z2            1.447489      10.509960
                          8       1   20gxy3             1.447489       8.140980
                          8       1   20gxy2z            1.447489      18.203785
                          8       1   20gxyz2            1.447489      18.203785
                          8       1   20gxz3             1.447489       8.140980
                          8       1   20gy4              1.447489       3.077001
                          8       1   20gy3z             1.447489       8.140980
                          8       1   20gy2z2            1.447489      10.509960
                          8       1   20gyz3             1.447489       8.140980
                          8       1   20gz4              1.447489       3.077001

                          9       1   15dx2              1.719528       4.249869
                          9       1   15dxy              1.719528       7.360988
                          9       1   15dxz              1.719528       7.360988
                          9       1   15dy2              1.719528       4.249869
                          9       1   15dyz              1.719528       7.360988
                          9       1   15dz2              1.719528       4.249869

                         10       1   10px               2.690083       4.910742
                         10       1   10py               2.690083       4.910742
                         10       1   10pz               2.690083       4.910742

                         11       1    3s                3.398643       1.783977

                         12       1   18fx3              4.079789      34.824857
                         12       1   18fx2y             4.079789      77.870748
                         12       1   18fx2z             4.079789      77.870748
                         12       1   18fxy2             4.079789      77.870748
                         12       1   18fxyz             4.079789     134.876093
                         12       1   18fxz2             4.079789      77.870748
                         12       1   18fy3              4.079789      34.824857
                         12       1   18fy2z             4.079789      77.870748
                         12       1   18fyz2             4.079789      77.870748
                         12       1   18fz3              4.079789      34.824857

                         13       1   11px               9.102547      22.536879
                         13       1   11py               9.102547      22.536879
                         13       1   11pz               9.102547      22.536879

                         14       1    4s               10.929094       4.283988

                         15       1   16dx2             29.234258     604.951557
                         15       1   16dxy             29.234258    1047.806833
                         15       1   16dxz             29.234258    1047.806833
                         15       1   16dy2             29.234258     604.951557
                         15       1   16dyz             29.234258    1047.806833
                         15       1   16dz2             29.234258     604.951557

                         16       1   12px              30.338365     101.491646
                         16       1   12py              30.338365     101.491646
                         16       1   12pz              30.338365     101.491646

                         17       1    5s               34.879449      10.229097

                         18       1   13px             100.633172     454.324902
                         18       1   13py             100.633172     454.324902
                         18       1   13pz             100.633172     454.324902

                         19       1    6s              111.091943      24.387766

                         20       1    7s              353.642060      58.120993

       Atomic covalent radius [Angstrom]:                                  1.020

       Atomic van der Waals radius [Angstrom]:                             1.800

     The atoms of this atomic kind are PAW atoms (GAPW):
       Hard Gaussian function radius:                                      1.512
       Rho0 radius:                                                        1.512
       Maximum GTO radius used for PAW projector construction:            24.566

     GAPW Soft Basis Set                                  aug-SZV-MOLOPT-ae_soft

       Number of orbital shell sets:                                           3
       Number of orbital shells:                                               8
       Number of primitive Cartesian functions:                                8
       Number of Cartesian basis functions:                                   19
       Number of spherical basis functions:                                   18
       Norm type:                                                              2

       Normalised Cartesian orbitals:

                        Set   Shell   Orbital            Exponent    Coefficient

                          1       1    1s                0.072000       0.000000
                                                         0.148404       0.047043
                                                         0.287959       0.206056
                                                         0.581913       0.071732
                                                         1.300021      -0.154888
                                                         3.466625      -0.128563

                          1       2    2s                0.072000       0.024465
                                                         0.148404       0.270123
                                                         0.287959      -0.286184
                                                         0.581913       0.001423
                                                         1.300021       0.046778
                                                         3.466625       0.000000

                          1       3    2px               0.072000       0.000000
                                                         0.148404       0.013902
                                                         0.287959       0.147021
                                                         0.581913       0.300295
                                                         1.300021       0.150808
                                                         3.466625      -0.123340
                          1       3    2py               0.072000       0.000000
                                                         0.148404       0.013902
                                                         0.287959       0.147021
                                                         0.581913       0.300295
                                                         1.300021       0.150808
                                                         3.466625      -0.123340
                          1       3    2pz               0.072000       0.000000
                                                         0.148404       0.013902
                                                         0.287959       0.147021
                                                         0.581913       0.300295
                                                         1.300021       0.150808
                                                         3.466625      -0.123340

                          1       4    3px               0.072000      -0.066040
                                                         0.148404       0.050064
                                                         0.287959      -0.069730
                                                         0.581913       0.158592
                                                         1.300021      -0.055990
                                                         3.466625       0.000000
                          1       4    3py               0.072000      -0.066040
                                                         0.148404       0.050064
                                                         0.287959      -0.069730
                                                         0.581913       0.158592
                                                         1.300021      -0.055990
                                                         3.466625       0.000000
                          1       4    3pz               0.072000      -0.066040
                                                         0.148404       0.050064
                                                         0.287959      -0.069730
                                                         0.581913       0.158592
                                                         1.300021      -0.055990
                                                         3.466625       0.000000

                          1       5    3dx2              0.072000       0.001679
                                                         0.148404       0.023049
                                                         0.287959       0.065695
                                                         0.581913       0.132541
                                                         1.300021       0.392654
                                                         3.466625       0.000000
                          1       5    3dxy              0.072000       0.002907
                                                         0.148404       0.039921
                                                         0.287959       0.113787
                                                         0.581913       0.229567
                                                         1.300021       0.680096
                                                         3.466625       0.000000
                          1       5    3dxz              0.072000       0.002907
                                                         0.148404       0.039921
                                                         0.287959       0.113787
                                                         0.581913       0.229567
                                                         1.300021       0.680096
                                                         3.466625       0.000000
                          1       5    3dy2              0.072000       0.001679
                                                         0.148404       0.023049
                                                         0.287959       0.065695
                                                         0.581913       0.132541
                                                         1.300021       0.392654
                                                         3.466625       0.000000
                          1       5    3dyz              0.072000       0.002907
                                                         0.148404       0.039921
                                                         0.287959       0.113787
                                                         0.581913       0.229567
                                                         1.300021       0.680096
                                                         3.466625       0.000000
                          1       5    3dz2              0.072000       0.001679
                                                         0.148404       0.023049
                                                         0.287959       0.065695
                                                         0.581913       0.132541
                                                         1.300021       0.392654
                                                         3.466625       0.000000

                          2       1    1s                3.552198       1.097452
                                                         1.628232       0.247277

                          2       2    2px               3.552198       2.960247
                                                         1.628232       0.266650
                          2       2    2py               3.552198       2.960247
                                                         1.628232       0.266650
                          2       2    2pz               3.552198       2.960247
                                                         1.628232       0.266650

                          3       1    1s         

     AE Potential information for                                            ALL

       Description:                                       All-electron potential
                                          Krack, Parrinello, PCCP 2, 2105 (2000)

       Gaussian exponent of the core charge distribution:               2.834467
       Electronic configuration (s p d ...):                           6  10   0

  2. Atomic kind: O                                     Number of atoms:       1

     Orbital Basis Set                                      aug-SZV-MOLOPT-ae-SR

       Number of orbital shell sets:                                           2
       Number of orbital shells:                                               6
       Number of primitive Cartesian functions:                                7
       Number of Cartesian basis functions:                                   15
       Number of spherical basis functions:                                   14
       Norm type:                                                              2

       Normalised Cartesian orbitals:

                        Set   Shell   Orbital            Exponent    Coefficient

                          1       1    1s                0.162492       0.000000
                                                         0.380389       0.241686
                                                         1.169596       0.320234
                                                         5.033151      -0.239413

                          1       2    2s                0.162492       0.120425
                                                         0.380389       0.131001
                                                         1.169596      -0.000041
                                                         5.033151      -0.089217

                          1       3    2px               0.162492       0.000000
                                                         0.380389       0.166903
                                                         1.169596       1.053568
                                                         5.033151       1.675450
                          1       3    2py               0.162492       0.000000
                                                         0.380389       0.166903
                                                         1.169596       1.053568
                                                         5.033151       1.675450
                          1       3    2pz               0.162492       0.000000
                                                         0.380389       0.166903
                                                         1.169596       1.053568
                                                         5.033151       1.675450

                          1       4    3px               0.162492       0.001278
                                                         0.380389       0.422682
                                                         1.169596       0.000775
                                                         5.033151       0.003884
                          1       4    3py               0.162492       0.001278
                                                         0.380389       0.422682
                                                         1.169596       0.000775
                                                         5.033151       0.003884
                          1       4    3pz               0.162492       0.001278
                                                         0.380389       0.422682
                                                         1.169596       0.000775
                                                         5.033151       0.003884

                          1       5    3dx2              0.162492      -0.037898
                                                         0.380389       0.380180
                                                         1.169596       0.208664
                                                         5.033151       1.207157
                          1       5    3dxy              0.162492      -0.065641
                                                         0.380389       0.658491
                                                         1.169596       0.361417
                                                         5.033151       2.090858
                          1       5    3dxz              0.162492      -0.065641
                                                         0.380389       0.658491
                                                         1.169596       0.361417
                                                         5.033151       2.090858
                          1       5    3dy2              0.162492      -0.037898
                                                         0.380389       0.380180
                                                         1.169596       0.208664
                                                         5.033151       1.207157
                          1       5    3dyz              0.162492      -0.065641
                                                         0.380389       0.658491
                                                         1.169596       0.361417
                                                         5.033151       2.090858
                          1       5    3dz2              0.162492      -0.037898
                                                         0.380389       0.380180
                                                         1.169596       0.208664
                                                         5.033151       1.207157

                          2       1    1s              130.709321       4.251943
                                                        23.808866       4.112294
                                                         6.443608       1.281623

     RI Auxiliary Basis Set             RI_aug-SZV-MOLOPT-ae-SR_N_RI_041_s_p_d_f

       Number of orbital shell sets:                                          13
       Number of orbital shells:                                              13
       Number of primitive Cartesian functions:                               13
       Number of Cartesian basis functions:                                   49
       Number of spherical basis functions:                                   41
       Norm type:                                                              2

       Normalised Cartesian orbitals:

                        Set   Shell   Orbital            Exponent    Coefficient

                          1       1    1s                0.578587       0.472810

                          2       1    6px               0.780295       1.045355
                          2       1    6py               0.780295       1.045355
                          2       1    6pz               0.780295       1.045355

                          3       1   10dx2              0.833706       1.197242
                          3       1   10dxy              0.833706       2.073683
                          3       1   10dxz              0.833706       2.073683
                          3       1   10dy2              0.833706       1.197242
                          3       1   10dyz              0.833706       2.073683
                          3       1   10dz2              0.833706       1.197242

                          4       1   12fx3              1.109067       1.858272
                          4       1   12fx2y             1.109067       4.155223
                          4       1   12fx2z             1.109067       4.155223
                          4       1   12fxy2             1.109067       4.155223
                          4       1   12fxyz             1.109067       7.197057
                          4       1   12fxz2             1.109067       4.155223
                          4       1   12fy3              1.109067       1.858272
                          4       1   12fy2z             1.109067       4.155223
                          4       1   12fyz2             1.109067       4.155223
                          4       1   12fz3              1.109067       1.858272

                          5       1    2s                1.362244       0.898672

                          6       1    7px               1.646979       2.659500
                          6       1    7py               1.646979       2.659500
                          6       1    7pz               1.646979       2.659500

                          7       1   11dx2              3.352121      13.668437
                          7       1   11dxy              3.352121      23.674428
                          7       1   11dxz              3.352121      23.674428
                          7       1   11dy2              3.352121      13.668437
                          7       1   11dyz              3.352121      23.674428
                          7       1   11dz2              3.352121      13.668437

                          8       1   13fx3              4.593152      45.467791
                          8       1   13fx2y             4.593152     101.669072
                          8       1   13fx2z             4.593152     101.669072
                          8       1   13fxy2             4.593152     101.669072
                          8       1   13fxyz             4.593152     176.095999
                          8       1   13fxz2             4.593152     101.669072
                          8       1   13fy3              4.593152      45.467791
                          8       1   13fy2z             4.593152     101.669072
                          8       1   13fyz2             4.593152     101.669072
                          8       1   13fz3              4.593152      45.467791

                          9       1    3s                6.300889       2.834402

                         10       1    8px               7.242711      16.936222
                         10       1    8py               7.242711      16.936222
                         10       1    8pz               7.242711      16.936222

                         11       1    9px              31.220564     105.194011
                         11       1    9py              31.220564     105.194011
                         11       1    9pz              31.220564     105.194011

                         12       1    4s               32.040850       9.598163

                         13       1    5s              162.601818      32.452947

       Atomic covalent radius [Angstrom]:                                  0.730

       Atomic van der Waals radius [Angstrom]:                             1.520

     The atoms of this atomic kind are PAW atoms (GAPW):
       Hard Gaussian function radius:                                      1.512
       Rho0 radius:                                                        1.512
       Maximum GTO radius used for PAW projector construction:            24.566

     GAPW Soft Basis Set                               aug-SZV-MOLOPT-ae-SR_soft

       Number of orbital shell sets:                                           2
       Number of orbital shells:                                               6
       Number of primitive Cartesian functions:                                3
       Number of Cartesian basis functions:                                   15
       Number of spherical basis functions:                                   14
       Norm type:                                                              2

       Normalised Cartesian orbitals:

                        Set   Shell   Orbital            Exponent    Coefficient

                          1       1    1s                0.162492       0.000000
                                                         0.380389       0.241686
                                                         1.169596       0.320234

                          1       2    2s                0.162492       0.120425
                                                         0.380389       0.131001
                                                         1.169596      -0.000041

                          1       3    2px               0.162492       0.000000
                                                         0.380389       0.166903
                                                         1.169596       1.053568
                          1       3    2py               0.162492       0.000000
                                                         0.380389       0.166903
                                                         1.169596       1.053568
                          1       3    2pz               0.162492       0.000000
                                                         0.380389       0.166903
                                                         1.169596       1.053568

                          1       4    3px               0.162492       0.001278
                                                         0.380389       0.422682
                                                         1.169596       0.000775
                          1       4    3py               0.162492       0.001278
                                                         0.380389       0.422682
                                                         1.169596       0.000775
                          1       4    3pz               0.162492       0.001278
                                                         0.380389       0.422682
                                                         1.169596       0.000775

                          1       5    3dx2              0.162492      -0.037898
                                                         0.380389       0.380180
                                                         1.169596       0.208664
                          1       5    3dxy              0.162492      -0.065641
                                                         0.380389       0.658491
                                                         1.169596       0.361417
                          1       5    3dxz              0.162492      -0.065641
                                                         0.380389       0.658491
                                                         1.169596       0.361417
                          1       5    3dy2              0.162492      -0.037898
                                                         0.380389       0.380180
                                                         1.169596       0.208664
                          1       5    3dyz              0.162492      -0.065641
                                                         0.380389       0.658491
                                                         1.169596       0.361417
                          1       5    3dz2              0.162492      -0.037898
                                                         0.380389       0.380180
                                                         1.169596       0.208664

                          2       1    1s         

     AE Potential information for                                            ALL

       Description:                                       All-electron potential
                                          Krack, Parrinello, PCCP 2, 2105 (2000)

       Gaussian exponent of the core charge distribution:               8.154466
       Electronic configuration (s p d ...):                           4   4   0


 MOLECULE KIND INFORMATION


 All atoms are their own molecule, skipping detailed information


 TOTAL NUMBERS AND MAXIMUM NUMBERS

  Total number of            - Atomic kinds:                                   2
                             - Atoms:                                          2
                             - Shell sets:                                     5
                             - Shells:                                        14
                             - Primitive Cartesian functions:                 26
                             - Cartesian basis functions:                     34
                             - Spherical basis functions:                     32

  Maximum angular momentum of the orbital basis functions:                     2


 MODULE QUICKSTEP: ATOMIC COORDINATES IN ANGSTROM

   Atom Kind Element         X             Y             Z       Z(eff)     Mass
      1    1 S    16     15.743107     15.000000     15.000000  16.0000  32.0650
      2    2 O     8     14.256893     15.000000     15.000000   8.0000  15.9994



 SCF PARAMETERS         Density guess:                                    ATOMIC
                        --------------------------------------------------------
                        max_scf:                                             500
                        max_scf_history:                                       0
                        max_diis:                                              4
                        --------------------------------------------------------
                        eps_scf:                                        1.00E-06
                        eps_scf_history:                                0.00E+00
                        eps_diis:                                       1.00E-01
                        eps_eigval:                                     1.00E-05
                        --------------------------------------------------------
                        level_shift [a.u.]:                             0.000000
                        added MOs                                        20    0
                        --------------------------------------------------------
                        Mixing method:                            BROYDEN_MIXING
                                                charge density mixing in g-space
                        --------------------------------------------------------
                        No outer SCF

 PW_GRID| Information for grid number                                          1
 PW_GRID| Grid distributed over                                    24 processors
 PW_GRID| Real space group dimensions                                    24    1
 PW_GRID| the grid is blocked:                                                NO
 PW_GRID| Cutoff [a.u.]                                                    250.0
 PW_GRID| spherical cutoff:                                                   NO
 PW_GRID|   Bounds   1           -202     202                Points:         405
 PW_GRID|   Bounds   2           -202     202                Points:         405
 PW_GRID|   Bounds   3           -202     202                Points:         405
 PW_GRID| Volume element (a.u.^3)  0.2743E-02     Volume (a.u.^3)    182205.0337
 PW_GRID| Grid span                                                    FULLSPACE
 PW_GRID|   Distribution                         Average         Max         Min
 PW_GRID|   G-Vectors                          2767921.9     2768175     2767770
 PW_GRID|   G-Rays                                6834.4        6835        6834
 PW_GRID|   Real Space Points                  2767921.9     2788425     2624400

 PW_GRID| Information for grid number                                          2
 PW_GRID| Number of the reference grid                                         1
 PW_GRID| Grid distributed over                                    24 processors
 PW_GRID| Real space group dimensions                                    24    1
 PW_GRID| the grid is blocked:                                                NO
 PW_GRID| Cutoff [a.u.]                                                     83.3
 PW_GRID| spherical cutoff:                                                   NO
 PW_GRID|   Bounds   1           -120     119                Points:         240
 PW_GRID|   Bounds   2           -120     119                Points:         240
 PW_GRID|   Bounds   3           -120     119                Points:         240
 PW_GRID| Volume element (a.u.^3)  0.1318E-01     Volume (a.u.^3)    182205.0337
 PW_GRID| Grid span                                                    FULLSPACE
 PW_GRID|   Distribution                         Average         Max         Min
 PW_GRID|   G-Vectors                           576000.0      576240      575760
 PW_GRID|   G-Rays                                2400.0        2401        2399
 PW_GRID|   Real Space Points                   576000.0      576000      576000

 PW_GRID| Information for grid number                                          3
 PW_GRID| Number of the reference grid                                         1
 PW_GRID| Grid distributed over                                    24 processors
 PW_GRID| Real space group dimensions                                    24    1
 PW_GRID| the grid is blocked:                                                NO
 PW_GRID| Cutoff [a.u.]                                                     27.8
 PW_GRID| spherical cutoff:                                                   NO
 PW_GRID|   Bounds   1            -67      67                Points:         135
 PW_GRID|   Bounds   2            -67      67                Points:         135
 PW_GRID|   Bounds   3            -67      67                Points:         135
 PW_GRID| Volume element (a.u.^3)  0.7406E-01     Volume (a.u.^3)    182205.0337
 PW_GRID| Grid span                                                    FULLSPACE
 PW_GRID|   Distribution                         Average         Max         Min
 PW_GRID|   G-Vectors                           102515.6      102735      102330
 PW_GRID|   G-Rays                                 759.4         761         758
 PW_GRID|   Real Space Points                   102515.6      109350       91125

 PW_GRID| Information for grid number                                          4
 PW_GRID| Number of the reference grid                                         1
 PW_GRID| Grid distributed over                                    24 processors
 PW_GRID| Real space group dimensions                                    24    1
 PW_GRID| the grid is blocked:                                                NO
 PW_GRID| Cutoff [a.u.]                                                      9.3
 PW_GRID| spherical cutoff:                                                   NO
 PW_GRID|   Bounds   1            -40      39                Points:          80
 PW_GRID|   Bounds   2            -40      39                Points:          80
 PW_GRID|   Bounds   3            -40      39                Points:          80
 PW_GRID| Volume element (a.u.^3)  0.3559         Volume (a.u.^3)    182205.0337
 PW_GRID| Grid span                                                    FULLSPACE
 PW_GRID|   Distribution                         Average         Max         Min
 PW_GRID|   G-Vectors                            21333.3       21360       21280
 PW_GRID|   G-Rays                                 266.7         267         266
 PW_GRID|   Real Space Points                    21333.3       25600       19200

 POISSON| Solver                                                         WAVELET
 POISSON| Wavelet| Scaling function                                           40
 POISSON| Periodicity                                                       NONE

 RS_GRID| Information for grid number                                          1
 RS_GRID|   Bounds   1           -202     202                Points:         405
 RS_GRID|   Bounds   2           -202     202                Points:         405
 RS_GRID|   Bounds   3           -202     202                Points:         405
 RS_GRID| Real space distribution over                                  4 groups
 RS_GRID| Real space distribution along direction                              2
 RS_GRID| Border size                                                         35
 RS_GRID| Real space distribution over                                  6 groups
 RS_GRID| Real space distribution along direction                              3
 RS_GRID| Border size                                                         35
 RS_GRID|   Distribution                         Average         Max         Min
 RS_GRID|   Planes                                 171.2         172         171
 RS_GRID|   Distribution                         Average         Max         Min
 RS_GRID|   Planes                                 137.5         138         137

 RS_GRID| Information for grid number                                          2
 RS_GRID|   Bounds   1           -120     119                Points:         240
 RS_GRID|   Bounds   2           -120     119                Points:         240
 RS_GRID|   Bounds   3           -120     119                Points:         240
 RS_GRID| Real space distribution over                                  4 groups
 RS_GRID| Real space distribution along direction                              2
 RS_GRID| Border size                                                         37
 RS_GRID| Real space distribution over                                  6 groups
 RS_GRID| Real space distribution along direction                              3
 RS_GRID| Border size                                                         37
 RS_GRID|   Distribution                         Average         Max         Min
 RS_GRID|   Planes                                 134.0         134         134
 RS_GRID|   Distribution                         Average         Max         Min
 RS_GRID|   Planes                                 114.0         114         114

 RS_GRID| Information for grid number                                          3
 RS_GRID|   Bounds   1            -67      67                Points:         135
 RS_GRID|   Bounds   2            -67      67                Points:         135
 RS_GRID|   Bounds   3            -67      67                Points:         135
 RS_GRID| Real space fully replicated
 RS_GRID| Group size                                                           1

 RS_GRID| Information for grid number                                          4
 RS_GRID|   Bounds   1            -40      39                Points:          80
 RS_GRID|   Bounds   2            -40      39                Points:          80
 RS_GRID|   Bounds   3            -40      39                Points:          80
 RS_GRID| Real space fully replicated
 RS_GRID| Group size                                                           1

  HFX_INFO| Replica ID:                                                        1
  HFX_INFO| FRACTION:                                               0.2500000000
  HFX_INFO| Interaction Potential:                                       COULOMB
  HFX_INFO| EPS_SCHWARZ:                                                 1.0E-10
  HFX_INFO| EPS_SCHWARZ_FORCES                                           1.0E-08
  HFX_INFO| EPS_STORAGE_SCALING:                                         1.0E+00
  HFX_INFO| NBINS:                                                            64
  HFX_INFO| BLOCK_SIZE:                                                        1
  HFX_INFO| Number of periodic shells considered:                           NONE
  HFX_INFO| Number of periodic cells considered:                            NONE

 
 RI-RPA| using GPW style
 

 OVERLAP MATRIX CONDITION NUMBER
 1-Norm Condition Number (Estimate)
   CN : |A|*|A^-1|:  4.594E+000 *  1.692E+002   = 7.774E+002  Log(1-CN):  2.8906
 1-Norm and 2-Norm Condition Numbers using Diagonalization
   CN : |A|*|A^-1|:  4.594E+000 *  1.692E+002   = 7.774E+002  Log(1-CN):  2.8906
   CN : max/min ev:  3.207E+000 /  1.201E-002   = 2.671E+002  Log(2-CN):  2.4267

 Number of electrons:                                                         24
 Number of occupied orbitals:                                                 12
 Number of molecular orbitals:                                                32

 Number of orbital functions:                                                 32
 Number of independent orbital functions:                                     32

 Extrapolation method: initial_guess

 Atomic guess: The first density matrix is obtained in terms of atomic orbitals
               and electronic configurations assigned to each atomic kind

 Guess for atomic kind: S

 Electronic structure
    Total number of core electrons                                          0.00
    Total number of valence electrons                                      16.00
    Total number of electrons                                              16.00
    Multiplicity                                                   not specified
    S      2.00  2.00  2.00
    P      6.00  4.00


 *******************************************************************************
                  Iteration          Convergence                     Energy [au]
 *******************************************************************************
                          1        0.325153                    -395.368844208554
                          2        0.769788E-01                -395.373921927869
                          3        0.368099E-01                -395.376202597199
                          4        0.129618E-03                -395.376832071110
                          5        0.133940E-05                -395.376832076700
                          6        0.254531E-07                -395.376832076701

 Energy components [Hartree]           Total Energy ::         -395.376832076701
                                        Band Energy ::         -226.966643727914
                                     Kinetic Energy ::          394.825609305730
                                   Potential Energy ::         -790.202441382430
                                      Virial (-V/T) ::            2.001396117065
                                        Core Energy ::         -547.411728359316
                                          XC Energy ::          -24.142205636462
                                     Coulomb Energy ::          176.177101919077

 Orbital energies  State     L     Occupation   Energy[a.u.]          Energy[eV]

                       1     0          2.000     -87.926561        -2392.603394
                       2     0          2.000      -7.518786         -204.596567
                       3     0          2.000      -0.619513          -16.857812

                       1     1          6.000      -5.631327         -153.236213
                       2     1          4.000      -0.262240           -7.135910


 Total Electron Density at R=0:                                      2331.742763

 Guess for atomic kind: O

 Electronic structure
    Total number of core electrons                                          0.00
    Total number of valence electrons                                       8.00
    Total number of electrons                                               8.00
    Multiplicity                                                   not specified
    S      2.00  2.00
    P      4.00


 *******************************************************************************
                  Iteration          Convergence                     Energy [au]
 *******************************************************************************
                          1        0.599527                     -73.375601368339
                          2        0.408940                     -73.402965239786
                          3        0.467422E-03                 -73.427671829740
                          4        0.397273E-04                 -73.427671891487
                          5        0.331032E-07                 -73.427671891704

 Energy components [Hartree]           Total Energy ::          -73.427671891704
                                        Band Energy ::          -39.525441932717
                                     Kinetic Energy ::           72.007128165258
                                   Potential Energy ::         -145.434800056962
                                      Virial (-V/T) ::            2.019727820879
                                        Core Energy ::         -102.018515532458
                                          XC Energy ::           -7.787812391279
                                     Coulomb Energy ::           36.378656032034

 Orbital energies  State     L     Occupation   Energy[a.u.]          Energy[eV]

                       1     0          2.000     -18.561766         -505.091352
                       2     0          2.000      -0.788492          -21.455956

                       1     1          4.000      -0.206231           -5.611839


 Total Electron Density at R=0:                                       192.964800
 Re-scaling the density matrix to get the right number of electrons
                  # Electrons              Trace(P)               Scaling factor
                           24                24.000                        1.000


 SCF WAVEFUNCTION OPTIMIZATION

  Step     Update method      Time    Convergence         Total energy    Change
  ------------------------------------------------------------------------------

  HFX_MEM_INFO| Est. max. program size before HFX [MiB]:                    2161
 POWELL| Error in trust region
 POWELL| Error in trust region
 POWELL| Error in trust region
 POWELL| Error in trust region
 POWELL| Error in trust region
 POWELL| Error in trust region
 POWELL| Error in trust region
 POWELL| Error in trust region
 POWELL| Error in trust region
 POWELL| Error in trust region
 POWELL| Error in trust region
 POWELL| Error in trust region
 POWELL| Error in trust region
 POWELL| Error in trust region
 POWELL| Error in trust region
 POWELL| Error in trust region
 POWELL| Error in trust region
 POWELL| Error in trust region
 POWELL| Error in trust region
 POWELL| Error in trust region
 POWELL| Error in trust region
 POWELL| Error in trust region
 POWELL| Error in trust region
 POWELL| Error in trust region
  HFX_MEM_INFO| Number of cart. primitive ERI's calculated:            184729957
  HFX_MEM_INFO| Number of sph. ERI's calculated:                          401093
  HFX_MEM_INFO| Number of sph. ERI's stored in-core:                      401093
  HFX_MEM_INFO| Number of sph. ERI's stored on disk:                           0
  HFX_MEM_INFO| Number of sph. ERI's calculated on the fly:                    0
  HFX_MEM_INFO| Total memory consumption ERI's RAM [MiB]:                      3
  HFX_MEM_INFO| Whereof max-vals [MiB]:                                        1
  HFX_MEM_INFO| Total compression factor ERI's RAM:                         1.48
  HFX_MEM_INFO| Total memory consumption ERI's disk [MiB]:                     0
  HFX_MEM_INFO| Total compression factor ERI's disk:                        0.00
  HFX_MEM_INFO| Size of density/Fock matrix [MiB]:                             0
  HFX_MEM_INFO| Size of buffers [MiB]:                                         0
  HFX_MEM_INFO| Est. max. program size after HFX  [MiB]:                    2671

     1 NoMix/Diag. 0.10E+00   12.2     0.85558083      -471.0342100853 -4.71E+02
     2 Broy./Diag. 0.10E+00    4.7     0.07281373      -470.8252818682  2.09E-01
     3 Broy./Diag. 0.10E+00    4.9     0.03055829      -470.9077951535 -8.25E-02
     4 Broy./Diag. 0.10E+00    5.0     0.03777469      -470.8926053940  1.52E-02
     5 Broy./Diag. 0.10E+00    5.1     0.01136037      -470.9271101203 -3.45E-02
     6 Broy./Diag. 0.10E+00    5.1     0.00496621      -470.9098720073  1.72E-02
     7 Broy./Diag. 0.10E+00    5.3     0.00835938      -470.9270279550 -1.72E-02
     8 Broy./Diag. 0.10E+00    5.4     0.00416533      -470.9371244816 -1.01E-02
     9 Broy./Diag. 0.10E+00    5.6     0.00988615      -470.9186502829  1.85E-02
    10 Broy./Diag. 0.10E+00    5.5     0.00438602      -470.9054059328  1.32E-02
    11 Broy./Diag. 0.10E+00    5.5     0.00151176      -470.9147554327 -9.35E-03
    12 Broy./Diag. 0.10E+00    5.4     0.00411447      -470.9217122089 -6.96E-03
    13 Broy./Diag. 0.10E+00    5.5     0.00180019      -470.9273264590 -5.61E-03
    14 Broy./Diag. 0.10E+00    5.4     0.00093327      -470.9253472578  1.98E-03
    15 Broy./Diag. 0.10E+00    5.4     0.00071526      -470.9270639754 -1.72E-03
    16 Broy./Diag. 0.10E+00    5.4     0.00028575      -470.9290651825 -2.00E-03
    17 Broy./Diag. 0.10E+00    5.4     0.00069035      -470.9270200619  2.05E-03
[...]
   420 Broy./Diag. 0.10E+00    5.5     0.00005169      -470.9255939725 -5.86E-05
   421 Broy./Diag. 0.10E+00    5.4     0.00027645      -470.9256855412 -9.16E-05
   422 Broy./Diag. 0.10E+00    5.4     0.00010951      -470.9255319968  1.54E-04
   423 Broy./Diag. 0.10E+00    5.4     0.00009575      -470.9253837761  1.48E-04
   424 Broy./Diag. 0.10E+00    5.4     0.00029550      -470.9253041841  7.96E-05
   425 Broy./Diag. 0.10E+00    5.4     0.00026289      -470.9252735190  3.07E-05
   426 Broy./Diag. 0.10E+00    5.5     0.00045148      -470.9253003288 -2.68E-05
   427 Broy./Diag. 0.10E+00    5.6     0.00026130      -470.9253189014 -1.86E-05
   428 Broy./Diag. 0.10E+00    5.7     0.00006091      -470.9252479734  7.09E-05
   429 Broy./Diag. 0.10E+00    5.6     0.00018607      -470.9252143603  3.36E-05
   430 Broy./Diag. 0.10E+00    5.6     0.00017074      -470.9251993557  1.50E-05
   431 Broy./Diag. 0.10E+00    5.6     0.00005301      -470.9251949687  4.39E-06
   432 Broy./Diag. 0.10E+00    5.5     0.00025191      -470.9251740012  2.10E-05
   433 Broy./Diag. 0.10E+00    5.5     0.00028775      -470.9251578495  1.62E-05
   434 Broy./Diag. 0.10E+00    5.4     0.00027183      -470.9251618155 -3.97E-06
   435 Broy./Diag. 0.10E+00    5.4     0.00041901      -470.9251731584 -1.13E-05
   436 Broy./Diag. 0.10E+00    5.4     0.00077779      -470.9251741677 -1.01E-06
   437 Broy./Diag. 0.10E+00    5.4     0.00130823      -470.9251753423 -1.17E-06
   438 Broy./Diag. 0.10E+00    5.4     0.00221304      -470.9251800008 -4.66E-06
   439 Broy./Diag. 0.10E+00    5.6     0.00330147      -470.9252043323 -2.43E-05
   440 Broy./Diag. 0.10E+00    5.6     0.00558220      -470.9252439828 -3.97E-05
   441 Broy./Diag. 0.10E+00    5.7     0.00982536      -470.9252497338 -5.75E-06
   442 Broy./Diag. 0.10E+00    5.6     0.01785501      -470.9251739945  7.57E-05
   443 Broy./Diag. 0.10E+00    5.6     0.03298664      -470.9250034133  1.71E-04
   444 Broy./Diag. 0.10E+00    5.5     0.05892770      -470.9248020891  2.01E-04
   445 Broy./Diag. 0.10E+00    5.5     0.10356154      -470.9243159629  4.86E-04
   446 Broy./Diag. 0.10E+00    5.5     0.16555751      -470.9230160185  1.30E-03
   447 Broy./Diag. 0.10E+00    5.5     0.21027373      -470.9199043487  3.11E-03
   448 Broy./Diag. 0.10E+00    5.5     0.18388284      -470.9142133138  5.69E-03
   449 Broy./Diag. 0.10E+00    5.5     0.18899380      -470.9071846651  7.03E-03
   450 Broy./Diag. 0.10E+00    5.5     0.17191305      -470.9008967230  6.29E-03
   451 Broy./Diag. 0.10E+00    5.4     0.13056738      -470.8964222374  4.47E-03
   452 Broy./Diag. 0.10E+00    5.4     0.09054736      -470.8934955008  2.93E-03
   453 Broy./Diag. 0.10E+00    5.5     0.06104259      -470.8917601436  1.74E-03
   454 Broy./Diag. 0.10E+00    5.7     0.04042425      -470.8907852772  9.75E-04
   455 Broy./Diag. 0.10E+00    5.6     0.02509118      -470.8901573442  6.28E-04
   456 Broy./Diag. 0.10E+00    5.6     0.00419238      -470.8899772265  1.80E-04
   457 Broy./Diag. 0.10E+00    5.5     0.02272803      -470.8856221666  4.36E-03
   458 Broy./Diag. 0.10E+00    5.5     0.06378145      -470.8914397050 -5.82E-03
   459 Broy./Diag. 0.10E+00    5.5     0.17193031      -470.8780957710  1.33E-02
   460 Broy./Diag. 0.10E+00    5.5     0.23772018      -470.8149654547  6.31E-02
   461 Broy./Diag. 0.10E+00    5.5     0.16412306      -470.7305466792  8.44E-02
   462 Broy./Diag. 0.10E+00    5.5     0.08284972      -470.7107439976  1.98E-02
   463 Broy./Diag. 0.10E+00    5.5     0.03518096      -470.7434844644 -3.27E-02
   464 Broy./Diag. 0.10E+00    5.4     0.07409184      -470.9889950148 -2.46E-01
   465 Broy./Diag. 0.10E+00    5.5     0.07974380      -470.9773000867  1.17E-02
   466 Broy./Diag. 0.10E+00    5.4     0.07053751      -470.9283112472  4.90E-02
   467 Broy./Diag. 0.10E+00    5.4     0.06381358      -471.0343500366 -1.06E-01
   468 Broy./Diag. 0.10E+00    5.4     0.35657107      -470.9448960159  8.95E-02

 *** WARNING in pw/ps_wavelet_methods.F:238 :: Density non-zero on the ***
 *** edges of the unit cell: wrong results in WAVELET solver           ***

   469 Broy./Diag. 0.10E+00    5.4     0.17415387      -470.9560457386 -1.11E-02
   470 Broy./Diag. 0.10E+00    5.6     0.30134263      -470.9047850418  5.13E-02
   471 Broy./Diag. 0.10E+00    5.6     0.07237419      -470.9579730979 -5.32E-02
   472 Broy./Diag. 0.10E+00    5.6     0.16838272      -470.9561346698  1.84E-03
   473 Broy./Diag. 0.10E+00    5.6     0.16825555      -470.9494805658  6.65E-03
   474 Broy./Diag. 0.10E+00    5.6     0.24931292      -470.9279236422  2.16E-02
   475 Broy./Diag. 0.10E+00    5.5     0.18206124      -470.9270172096  9.06E-04
   476 Broy./Diag. 0.10E+00    5.5     0.04239002      -470.9534415581 -2.64E-02
   477 Broy./Diag. 0.10E+00    5.5     0.10432893      -470.9827360171 -2.93E-02
   478 Broy./Diag. 0.10E+00    5.5     0.01676222      -470.9909744259 -8.24E-03
   479 Broy./Diag. 0.10E+00    5.4     0.02666506      -470.9849757367  6.00E-03
   480 Broy./Diag. 0.10E+00    5.5     0.02832731      -470.9794508568  5.52E-03
   481 Broy./Diag. 0.10E+00    5.5     0.00490584      -470.9742548010  5.20E-03
   482 Broy./Diag. 0.10E+00    5.4     0.30243762      -470.9770567274 -2.80E-03
   483 Broy./Diag. 0.10E+00    5.4     0.24192904      -471.0035759436 -2.65E-02
   484 Broy./Diag. 0.10E+00    5.4     0.11040495      -470.9986388328  4.94E-03
   485 Broy./Diag. 0.10E+00    5.7     0.07555778      -470.9874601107  1.12E-02
   486 Broy./Diag. 0.10E+00    5.5     0.29567961      -470.9800916313  7.37E-03
   487 Broy./Diag. 0.10E+00    5.6     0.27218887      -471.0159761841 -3.59E-02
   488 Broy./Diag. 0.10E+00    5.7     0.17082842      -471.0386763459 -2.27E-02
   489 Broy./Diag. 0.10E+00    5.6     0.08388352      -471.0375196192  1.16E-03
   490 Broy./Diag. 0.10E+00    5.5     0.08544283      -471.0373129113  2.07E-04
   491 Broy./Diag. 0.10E+00    5.6     0.07517409      -471.0299653473  7.35E-03
   492 Broy./Diag. 0.10E+00    5.5     0.07711157      -471.0309855933 -1.02E-03
   493 Broy./Diag. 0.10E+00    5.4     0.05330884      -471.0069703996  2.40E-02
   494 Broy./Diag. 0.10E+00    5.4     0.04313417      -470.9494232591  5.75E-02
   495 Broy./Diag. 0.10E+00    5.4     0.02347471      -470.9308150681  1.86E-02
   496 Broy./Diag. 0.10E+00    5.4     0.02279523      -470.9387428794 -7.93E-03
   497 Broy./Diag. 0.10E+00    5.5     0.04321818      -470.9496576928 -1.09E-02
   498 Broy./Diag. 0.10E+00    5.4     0.04337121      -470.9472875711  2.37E-03
   499 Broy./Diag. 0.10E+00    5.4     0.02830795      -470.9330611356  1.42E-02
   500 Broy./Diag. 0.10E+00    5.4     0.03345961      -470.9243184297  8.74E-03

  Leaving inner SCF loop after reaching   500 steps.


  Electronic density on regular grids:        -14.8577044559        9.1422955441
  Core density on regular grids:               24.0000000000        0.0000000000
  Hard and soft densities (Lebedev):          -40.0246235677      -30.8783903269
  Total Rho_soft + Rho1_hard - Rho1_soft      -24.0039376966
  Total charge density (r-space):              -0.0039376966
  Total Rho_soft + Rho0_soft (g-space):        -0.0039389963

  Overlap energy of the core charge distribution:               0.00000038248801
  Self energy of the core charge distribution:               -244.85361235670862
  Core Hamiltonian energy:                                   -232.80867535630594
  Hartree energy:                                              40.28305805844037
  Exchange-correlation energy:                                 -6.50335757080115
  Hartree-Fock Exchange energy:                                -8.29807046527763

  GAPW| Exc from hard and soft atomic rho1:                   -19.15078939187370
  GAPW| local Eh = 1 center integrals:                          0.40712827036687

  Total energy:                                              -470.92431842967176

 *******************************************************************************
 *   ___                                                                       *
 *  /   \                                                                      *
 * [ABORT]                                                                     *
 *  \___/     SCF run NOT converged. To continue the calculation regardless,   *
 *    |             please set the keyword IGNORE_CONVERGENCE_FAILURE.         *
 *  O/|                                                                        *
 * /| |                                                                        *
 * / \                                                            qs_scf.F:611 *
 *******************************************************************************


 ===== Routine Calling Stack ===== 

            3 scf_env_do_scf
            2 qs_energies
            1 CP2K

 *******************************************************************************
 *   ___                                                                       *
 *  /   \                                                                      *
 * [ABORT]                                                                     *
 *  \___/     SCF run NOT converged. To continue the calculation regardless,   *
 *    |             please set the keyword IGNORE_CONVERGENCE_FAILURE.         *
 *  O/|                                                                        *
 * /| |                                                                        *
 * / \                                                            qs_scf.F:611 *
 *******************************************************************************


 ===== Routine Calling Stack ===== 

            3 scf_env_do_scf
            2 qs_energies
            1 CP2K

 *******************************************************************************
 *   ___                                                                       *
 *  /   \                                                                      *
 * [ABORT]                                                                     *
 *  \___/     SCF run NOT converged. To continue the calculation regardless,   *
 *    |             please set the keyword IGNORE_CONVERGENCE_FAILURE.         *
 *  O/|                                                                        *
 * /| |                                                                        *
 * / \                                                            qs_scf.F:611 *
 *******************************************************************************


 ===== Routine Calling Stack ===== 

            3 scf_env_do_scf
            2 qs_energies
            1 CP2K

 *******************************************************************************
 *   ___                                                                       *
 *  /   \                                                                      *
 * [ABORT]                                                                     *
 *  \___/     SCF run NOT converged. To continue the calculation regardless,   *
 *    |             please set the keyword IGNORE_CONVERGENCE_FAILURE.         *
 *  O/|                                                                        *
 * /| |                                                                        *
 * / \                                                            qs_scf.F:611 *
 *******************************************************************************


 ===== Routine Calling Stack ===== 

            3 scf_env_do_scf
            2 qs_energies
            1 CP2K

 *******************************************************************************
 *   ___                                                                       *
 *  /   \                                                                      *
 * [ABORT]                                                                     *
 *  \___/     SCF run NOT converged. To continue the calculation regardless,   *
 *    |             please set the keyword IGNORE_CONVERGENCE_FAILURE.         *
 *  O/|                                                                        *
 * /| |                                                                        *
 * / \                                                            qs_scf.F:611 *
 *******************************************************************************


 ===== Routine Calling Stack ===== 

            3 scf_env_do_scf
            2 qs_energies
            1 CP2K

 *******************************************************************************
 *   ___                                                                       *
 *  /   \                                                                      *
 * [ABORT]                                                                     *
 *  \___/     SCF run NOT converged. To continue the calculation regardless,   *
 *    |             please set the keyword IGNORE_CONVERGENCE_FAILURE.         *
 *  O/|                                                                        *
 * /| |                                                                        *
 * / \                                                            qs_scf.F:611 *
 *******************************************************************************


 ===== Routine Calling Stack ===== 

            3 scf_env_do_scf
            2 qs_energies
            1 CP2K

 *******************************************************************************
 *   ___                                                                       *
 *  /   \                                                                      *
 * [ABORT]                                                                     *
 *  \___/     SCF run NOT converged. To continue the calculation regardless,   *
 *    |             please set the keyword IGNORE_CONVERGENCE_FAILURE.         *
 *  O/|                                                                        *
 * /| |                                                                        *
 * / \                                                            qs_scf.F:611 *
 *******************************************************************************


 ===== Routine Calling Stack ===== 

            3 scf_env_do_scf
            2 qs_energies
            1 CP2K

 *******************************************************************************
 *   ___                                                                       *
 *  /   \                                                                      *
 * [ABORT]                                                                     *
 *  \___/     SCF run NOT converged. To continue the calculation regardless,   *
 *    |             please set the keyword IGNORE_CONVERGENCE_FAILURE.         *
 *  O/|                                                                        *
 * /| |                                                                        *
 * / \                                                            qs_scf.F:611 *
 *******************************************************************************


 ===== Routine Calling Stack ===== 

            3 scf_env_do_scf
            2 qs_energies
            1 CP2K

 *******************************************************************************
 *   ___                                                                       *
 *  /   \                                                                      *
 * [ABORT]                                                                     *
 *  \___/     SCF run NOT converged. To continue the calculation regardless,   *
 *    |             please set the keyword IGNORE_CONVERGENCE_FAILURE.         *
 *  O/|                                                                        *
 * /| |                                                                        *
 * / \                                                            qs_scf.F:611 *
 *******************************************************************************


 ===== Routine Calling Stack ===== 

            3 scf_env_do_scf
            2 qs_energies
            1 CP2K

 *******************************************************************************
 *   ___                                                                       *
 *  /   \                                                                      *
 * [ABORT]                                                                     *
 *  \___/     SCF run NOT converged. To continue the calculation regardless,   *
 *    |             please set the keyword IGNORE_CONVERGENCE_FAILURE.         *
 *  O/|                                                                        *
 * /| |                                                                        *
 * / \                                                            qs_scf.F:611 *
 *******************************************************************************


 ===== Routine Calling Stack ===== 

            3 scf_env_do_scf
            2 qs_energies
            1 CP2K

 *******************************************************************************
 *   ___                                                                       *
 *  /   \                                                                      *
 * [ABORT]                                                                     *
 *  \___/     SCF run NOT converged. To continue the calculation regardless,   *
 *    |             please set the keyword IGNORE_CONVERGENCE_FAILURE.         *
 *  O/|                                                                        *
 * /| |                                                                        *
 * / \                                                            qs_scf.F:611 *
 *******************************************************************************


 ===== Routine Calling Stack ===== 

            3 scf_env_do_scf
            2 qs_energies
            1 CP2K

 *******************************************************************************
 *   ___                                                                       *
 *  /   \                                                                      *
 * [ABORT]                                                                     *
 *  \___/     SCF run NOT converged. To continue the calculation regardless,   *
 *    |             please set the keyword IGNORE_CONVERGENCE_FAILURE.         *
 *  O/|                                                                        *
 * /| |                                                                        *
 * / \                                                            qs_scf.F:611 *
 *******************************************************************************


 ===== Routine Calling Stack ===== 

            3 scf_env_do_scf
            2 qs_energies
            1 CP2K

 *******************************************************************************
 *   ___                                                                       *
 *  /   \                                                                      *
 * [ABORT]                                                                     *
 *  \___/     SCF run NOT converged. To continue the calculation regardless,   *
 *    |             please set the keyword IGNORE_CONVERGENCE_FAILURE.         *
 *  O/|                                                                        *
 * /| |                                                                        *
 * / \                                                            qs_scf.F:611 *
 *******************************************************************************


 ===== Routine Calling Stack ===== 

            3 scf_env_do_scf
            2 qs_energies
            1 CP2K
